 Entering Gaussian System, Link 0=g09
 Input=nmrcom/quaianolide_revised_3_NMR.com
 Output=nmrcom/quaianolide_revised_3_NMR.log
 Initial command:
 /cm/shared/apps/Gaussian09/g09/l1.exe "/local/Gau-82870.inp" -scrdir="/local/"
 Entering Link 1 = /cm/shared/apps/Gaussian09/g09/l1.exe PID=     82871.
  
 Copyright (c) 1988,1990,1992,1993,1995,1998,2003,2009,2013,
            Gaussian, Inc.  All Rights Reserved.
  
 This is part of the Gaussian(R) 09 program.  It is based on
 the Gaussian(R) 03 system (copyright 2003, Gaussian, Inc.),
 the Gaussian(R) 98 system (copyright 1998, Gaussian, Inc.),
 the Gaussian(R) 94 system (copyright 1995, Gaussian, Inc.),
 the Gaussian 92(TM) system (copyright 1992, Gaussian, Inc.),
 the Gaussian 90(TM) system (copyright 1990, Gaussian, Inc.),
 the Gaussian 88(TM) system (copyright 1988, Gaussian, Inc.),
 the Gaussian 86(TM) system (copyright 1986, Carnegie Mellon
 University), and the Gaussian 82(TM) system (copyright 1983,
 Carnegie Mellon University). Gaussian is a federally registered
 trademark of Gaussian, Inc.
  
 This software contains proprietary and confidential information,
 including trade secrets, belonging to Gaussian, Inc.
  
 This software is provided under written license and may be
 used, copied, transmitted, or stored only in accord with that
 written license.
  
 The following legend is applicable only to US Government
 contracts under FAR:
  
                    RESTRICTED RIGHTS LEGEND
  
 Use, reproduction and disclosure by the US Government is
 subject to restrictions as set forth in subparagraphs (a)
 and (c) of the Commercial Computer Software - Restricted
 Rights clause in FAR 52.227-19.
  
 Gaussian, Inc.
 340 Quinnipiac St., Bldg. 40, Wallingford CT 06492
  
  
 ---------------------------------------------------------------
 Warning -- This program may not be used in any manner that
 competes with the business of Gaussian, Inc. or will provide
 assistance to any competitor of Gaussian, Inc.  The licensee
 of this program is prohibited from giving any competitor of
 Gaussian, Inc. access to this program.  By using this program,
 the user acknowledges that Gaussian, Inc. is engaged in the
 business of creating and licensing software in the field of
 computational chemistry and represents and warrants to the
 licensee that it is not a competitor of Gaussian, Inc. and that
 it will not use this program in any manner prohibited above.
 ---------------------------------------------------------------
  

 Cite this work as:
 Gaussian 09, Revision D.01,
 M. J. Frisch, G. W. Trucks, H. B. Schlegel, G. E. Scuseria, 
 M. A. Robb, J. R. Cheeseman, G. Scalmani, V. Barone, B. Mennucci, 
 G. A. Petersson, H. Nakatsuji, M. Caricato, X. Li, H. P. Hratchian, 
 A. F. Izmaylov, J. Bloino, G. Zheng, J. L. Sonnenberg, M. Hada, 
 M. Ehara, K. Toyota, R. Fukuda, J. Hasegawa, M. Ishida, T. Nakajima, 
 Y. Honda, O. Kitao, H. Nakai, T. Vreven, J. A. Montgomery, Jr., 
 J. E. Peralta, F. Ogliaro, M. Bearpark, J. J. Heyd, E. Brothers, 
 K. N. Kudin, V. N. Staroverov, T. Keith, R. Kobayashi, J. Normand, 
 K. Raghavachari, A. Rendell, J. C. Burant, S. S. Iyengar, J. Tomasi, 
 M. Cossi, N. Rega, J. M. Millam, M. Klene, J. E. Knox, J. B. Cross, 
 V. Bakken, C. Adamo, J. Jaramillo, R. Gomperts, R. E. Stratmann, 
 O. Yazyev, A. J. Austin, R. Cammi, C. Pomelli, J. W. Ochterski, 
 R. L. Martin, K. Morokuma, V. G. Zakrzewski, G. A. Voth, 
 P. Salvador, J. J. Dannenberg, S. Dapprich, A. D. Daniels, 
 O. Farkas, J. B. Foresman, J. V. Ortiz, J. Cioslowski, 
 and D. J. Fox, Gaussian, Inc., Wallingford CT, 2013.
 
 ******************************************
 Gaussian 09:  ES64L-G09RevD.01 24-Apr-2013
                17-Sep-2019 
 ******************************************
 %Chk=quaianolide_revised_3_NMR
 %NoSave
 %mem=26GB
 %NProcShared=8
 Will use up to    8 processors via shared memory.
 ----------------------------------------------------------
 #T nmr(giao,spinspin,mixed)wb97xd/6-311g(d,p) maxdisk=50GB
 ----------------------------------------------------------
 -------------------------
 quaianolide_revised_3 NMR
 -------------------------
 Symbolic Z-matrix:
 Charge =  0 Multiplicity = 1
 C                    -1.17799  -0.37147   0.47071 
 C                    -0.16891   0.66282  -0.11756 
 C                     1.25223   0.40887   0.32461 
 C                     1.83244  -0.93158  -0.1369 
 C                     1.40718  -2.09283   0.74458 
 C                     0.01736  -2.67015   0.44587 
 C                    -1.11075  -1.79996  -0.15064 
 C                    -2.53255   0.38266   0.3255 
 C                    -2.17406   1.82828   0.5514 
 C                    -0.75384   2.01866   0.2551 
 O                     2.12957   1.40867  -0.22961 
 C                     3.37182   0.8858   -0.41587 
 C                     3.28993  -0.58652  -0.19806 
 O                    -1.25013   2.03524   1.62069 
 Cl                   -3.26239   0.34992  -1.34063 
 O                    -0.99629  -0.57366   1.85899 
 H                    -0.2037    0.58162  -1.20816 
 C                    -0.1836    3.30901  -0.24032 
 O                    -0.84856  -1.72341  -1.54669 
 C                    -2.41408  -2.56067   0.1084 
 O                     4.31405   1.55786  -0.70921 
 C                     4.37677  -1.339    -0.08832 
 H                     1.32588   0.48177   1.41456 
 H                     1.48674  -1.10687  -1.16375 
 H                     1.45627  -1.77046   1.78741 
 H                     2.12868  -2.90769   0.64052 
 H                     0.11397  -3.48037  -0.28193 
 H                    -0.35907  -3.11793   1.36601 
 H                    -3.28688  -0.02921   0.99096 
 H                    -2.92328   2.59963   0.41649 
 H                    -0.81251   4.14054   0.07936 
 H                    -0.13427   3.30052  -1.3309 
 H                     0.82779   3.45666   0.13479 
 H                    -1.61648  -1.3304   -1.97063 
 H                    -2.65809  -2.54024   1.17196 
 H                    -2.28688  -3.59998  -0.19894 
 H                    -3.25233  -2.14759  -0.45331 
 H                     4.32755  -2.40731   0.08458 
 H                     5.35454  -0.87952  -0.1741 
 H                    -1.0083    0.30716   2.26145 
 
                    Distance matrix (angstroms):
                    1          2          3          4          5
     1  C    0.000000
     2  C    1.560146   0.000000
     3  C    2.556612   1.509852   0.000000
     4  C    3.121793   2.558883   1.531810   0.000000
     5  C    3.117875   3.289514   2.541433   1.518664   0.000000
     6  C    2.591021   3.385381   3.319637   2.580068   1.534313
     7  C    1.559218   2.636931   3.269323   3.068652   2.688331
     8  C    1.557121   2.421066   3.784870   4.581937   4.671732
     9  C    2.416105   2.413799   3.715592   4.913513   5.313909
    10  C    2.437035   1.522937   2.573049   3.942897   4.670538
    11  O    3.820905   2.419067   1.440995   2.360856   3.705583
    12  C    4.802863   3.560263   2.295299   2.397992   3.752151
    13  C    4.522804   3.678435   2.327270   1.499021   2.588871
    14  O    2.668320   2.464572   3.253727   4.625300   4.986964
    15  Cl   2.854129   3.341162   4.812303   5.389663   5.667443
    16  O    1.414643   2.473901   2.894055   3.480428   3.053920
    17  H    2.162462   1.094172   2.121074   2.753766   3.682493
    18  C    3.878190   2.649085   3.285053   4.696568   5.716683
    19  O    2.450745   2.863284   3.530117   3.130862   3.236471
    20  C    2.540032   3.934805   4.723006   4.554894   3.902003
    21  O    5.939446   4.609565   3.429819   3.561350   4.887829
    22  C    5.666037   4.967027   3.603930   2.577201   3.174971
    23  H    2.808596   2.148151   1.094865   2.158979   2.661587
    24  H    3.211387   2.639591   2.137207   1.097569   2.149452
    25  H    3.260395   3.491556   2.632663   2.132650   1.092630
    26  H    4.170761   4.313015   3.444928   2.144094   1.093338
    27  H    3.449763   4.156084   4.097530   3.077421   2.156707
    28  H    3.002534   4.065856   4.014867   3.441159   2.134630
    29  H    2.198912   3.380743   4.608630   5.319187   5.133554
    30  H    3.446224   3.409256   4.716226   5.949167   6.393723
    31  H    4.543680   3.542257   4.271846   5.724418   6.650144
    32  H    4.221221   2.903599   3.608979   4.817082   5.980959
    33  H    4.334812   2.977023   3.083049   4.509966   5.612872
    34  H    2.659312   3.082564   4.064810   3.926408   4.134749
    35  H    2.717722   4.256579   4.970506   4.946292   4.112088
    36  H    3.478692   4.760653   5.373111   4.908465   4.099734
    37  H    2.882934   4.185522   5.237536   5.237722   4.811338
    38  H    5.882573   5.448366   4.176849   2.907300   3.010492
    39  H    6.583905   5.735023   4.328691   3.522678   4.230572
    40  H    1.922524   2.547703   2.978548   3.918722   3.727651
                    6          7          8          9         10
     6  C    0.000000
     7  C    1.544563   0.000000
     8  C    3.979467   2.648026   0.000000
     9  C    5.004926   3.845461   1.506435   0.000000
    10  C    4.755638   3.856666   2.417697   1.463239   0.000000
    11  O    4.642677   4.560834   4.805850   4.394007   2.986821
    12  C    4.963841   5.232306   5.971959   5.707945   4.330661
    13  C    3.932660   4.565150   5.925758   6.020638   4.831602
    14  O    5.012727   4.226793   2.460308   1.428239   1.453076
    15  Cl   4.803033   3.266131   1.819263   2.636234   3.409374
    16  O    2.723904   2.357009   2.371965   2.977625   3.058006
    17  H    3.654951   2.759169   2.795578   2.921052   2.123414
    18  C    6.021762   5.193193   3.794898   2.604100   1.495198
    19  O    2.369902   1.422522   3.282746   4.332825   4.154336
    20  C    2.457193   1.531163   2.953698   4.417767   4.873210
    21  O    6.137732   6.404323   7.023360   6.614971   5.179357
    22  C    4.589307   5.507196   7.132602   7.304401   6.141255
    23  H    3.547559   3.686903   4.010395   3.848072   2.834005
    24  H    2.682121   2.872923   4.537749   4.995818   4.099051
    25  H    2.163248   3.216594   4.762745   5.259078   4.646504
    26  H    2.133533   3.513809   5.714246   6.399284   5.720697
    27  H    1.093381   2.083496   4.721867   5.840483   5.592930
    28  H    1.090351   2.145291   4.249798   5.331298   5.270157
    29  H    4.264936   3.028916   1.086960   2.209485   3.339394
    30  H    6.034803   4.792007   2.252983   1.083754   2.251676
    31  H    6.870847   5.952430   4.140146   2.724560   2.129954
    32  H    6.231277   5.325547   4.124236   3.141863   2.131296
    33  H    6.188000   5.609941   4.558256   3.440392   2.140995
    34  H    3.209959   1.946442   3.007650   4.080284   4.112687
    35  H    2.775275   2.166001   3.045587   4.438842   5.024979
    36  H    2.567081   2.150742   4.024521   5.481025   5.841701
    37  H    3.431106   2.190628   2.743503   4.240238   4.909376
    38  H    4.333280   5.477157   7.409647   7.773611   6.740832
    39  H    5.663583   6.530519   8.003049   8.033573   6.774654
    40  H    3.634926   3.204466   2.465142   2.568480   2.649429
                   11         12         13         14         15
    11  O    0.000000
    12  C    1.360610   0.000000
    13  C    2.308290   1.490595   0.000000
    14  O    3.903665   5.179886   5.549202   0.000000
    15  Cl   5.606116   6.719747   6.716782   3.957126   0.000000
    16  O    4.250044   5.136667   4.754288   2.632032   4.028117
    17  H    2.661904   3.674855   3.819717   3.348203   3.070312
    18  C    2.993693   4.306250   5.219422   2.494665   4.409742
    19  O    4.518177   5.089042   4.498710   4.931632   3.188683
    20  C    6.042738   6.754970   6.043746   4.976359   3.360181
    21  O    2.241477   1.193949   2.430733   6.051155   7.698063
    22  C    3.552402   2.463119   1.326462   6.779991   7.923222
    23  H    2.051422   2.774810   2.756683   3.015222   5.353554
    24  H    2.759307   2.843162   2.110638   5.011624   4.970681
    25  H    3.824727   3.947082   2.950612   4.672872   6.045356
    26  H    4.403186   4.129393   2.727550   6.067093   6.603068
    27  H    5.288488   5.449307   4.297450   5.991887   5.214572
    28  H    5.406424   5.755383   4.708450   5.235840   5.270779
    29  H    5.735434   6.866922   6.706616   2.967633   2.362331
    30  H    5.231364   6.577105   7.009508   2.137300   2.874659
    31  H    4.026716   5.324210   6.265149   2.645662   4.731497
    32  H    3.149119   4.354404   5.302599   3.399704   4.300145
    33  H    2.453915   3.658504   4.745550   2.923370   5.343988
    34  H    4.956465   5.675554   5.269548   4.935513   2.435032
    35  H    6.362391   7.114686   6.408814   4.808193   3.877022
    36  H    6.677766   7.224274   6.338904   6.011784   4.225723
    37  H    6.454606   7.285755   6.730767   5.079995   2.650472
    38  H    4.414918   3.465317   2.114666   7.294274   8.200038
    39  H    3.954652   2.665702   2.085437   7.439005   8.782008
    40  H    4.155113   5.166075   5.032162   1.858852   4.249434
                   16         17         18         19         20
    16  O    0.000000
    17  H    3.371986   0.000000
    18  C    4.488065   2.894100   0.000000
    19  O    3.597553   2.417354   5.241570   0.000000
    20  C    3.003811   4.061170   6.288864   2.427175   0.000000
    21  O    6.272058   4.648874   4.849254   6.174193   7.930857
    22  C    5.766066   5.091513   6.513382   5.438633   6.902669
    23  H    2.589190   3.037797   3.606995   4.284856   4.994974
    24  H    3.947992   2.389666   4.810689   2.445484   4.352962
    25  H    2.729923   4.154662   5.709806   4.053482   4.292218
    26  H    4.086287   4.586157   6.691030   3.879480   4.586963
    27  H    3.776925   4.178346   6.796030   2.369179   2.718321
    28  H    2.668778   4.509673   6.626966   3.266207   2.472893
    29  H    2.509324   3.836045   4.721240   3.905807   2.819387
    30  H    3.982951   3.756067   2.905248   5.181432   5.194507
    31  H    5.042281   3.833317   1.090487   6.085332   6.890000
    32  H    5.091933   2.722559   1.091730   5.079041   6.451564
    33  H    4.748011   3.336669   1.088767   5.698303   6.835104
    34  H    3.952627   2.496618   5.154729   0.961186   2.544034
    35  H    2.664775   4.629801   6.506261   3.366406   1.091385
    36  H    3.880627   4.779532   7.222164   2.721526   1.091238
    37  H    3.593564   4.160838   6.263946   2.674607   1.090327
    38  H    5.903732   5.580057   7.289196   5.469999   6.743417
    39  H    6.675329   5.839363   6.944001   6.408948   7.953461
    40  H    0.968486   3.572249   3.993764   4.318642   3.851787
                   21         22         23         24         25
    21  O    0.000000
    22  C    2.963315   0.000000
    23  H    3.820672   3.857697   0.000000
    24  H    3.911656   3.092368   3.032706   0.000000
    25  H    5.047544   3.497692   2.286606   3.025001   0.000000
    26  H    5.151574   2.836530   3.568203   2.628769   1.749512
    27  H    6.573201   4.774349   4.477206   2.880211   3.001292
    28  H    6.928748   5.263821   3.974828   3.721697   2.299722
    29  H    7.948802   7.849324   4.660260   5.347099   5.115049
    30  H    7.398071   8.310140   4.851471   5.973570   6.337000
    31  H    5.794283   7.548653   4.443201   5.862349   6.557799
    32  H    4.817773   6.589286   4.197012   4.699007   6.161861
    33  H    4.058549   5.970213   3.276559   4.790218   5.518052
    34  H    6.715977   6.281895   4.837447   3.214182   4.874251
    35  H    8.303251   7.247108   5.006337   4.968873   4.230759
    36  H    8.392612   7.037651   5.684723   4.624571   4.615619
    37  H    8.428877   7.680511   5.600220   4.903733   5.228193
    38  H    4.043862   1.083326   4.373295   3.364474   3.398453
    39  H    2.703653   1.083751   4.539503   3.998872   4.453967
    40  H    6.222261   6.101662   2.489198   4.467289   3.258114
                   26         27         28         29         30
    26  H    0.000000
    27  H    2.288650   0.000000
    28  H    2.599886   1.752377   0.000000
    29  H    6.143018   5.009642   4.272344   0.000000
    30  H    7.476834   6.832214   6.337768   2.715333   0.000000
    31  H    7.657874   7.685521   7.385561   4.933595   2.635036
    32  H    6.895600   6.866038   6.965658   5.139754   3.364998
    33  H    6.515597   6.986101   6.793362   5.460292   3.858025
    34  H    4.830336   3.235516   3.988673   3.640646   4.780295
    35  H    4.830177   3.268330   2.378422   2.594881   5.201862
    36  H    4.547651   2.405265   2.529407   3.894380   6.262501
    37  H    5.543416   3.624592   3.552808   2.564104   4.837456
    38  H    2.322604   4.363488   4.910339   8.028472   8.817833
    39  H    3.896572   5.851463   6.326748   8.760962   8.998643
    40  H    4.775279   4.698261   3.599242   2.630439   3.510908
                   31         32         33         34         35
    31  H    0.000000
    32  H    1.776084   0.000000
    33  H    1.778017   1.760169   0.000000
    34  H    5.897456   4.904242   5.772621   0.000000
    35  H    7.016611   6.837289   7.013552   3.524851   0.000000
    36  H    7.884597   7.316554   7.720665   2.956236   1.772062
    37  H    6.765879   6.338330   6.957075   2.376151   1.774487
    38  H    8.324338   7.381785   6.829129   6.380836   7.071016
    39  H    7.955987   6.995565   6.276091   7.212896   8.292898
    40  H    4.415284   4.757015   4.220580   4.578426   3.466477
                   36         37         38         39         40
    36  H    0.000000
    37  H    1.762445   0.000000
    38  H    6.727076   7.603379   0.000000
    39  H    8.111279   8.704263   1.858972   0.000000
    40  H    4.791031   4.293180   6.370121   6.915626   0.000000
 Framework group  C1[X(C15H19ClO5)]
 Deg. of freedom   114
                         Standard orientation:                         
 ---------------------------------------------------------------------
 Center     Atomic      Atomic             Coordinates (Angstroms)
 Number     Number       Type             X           Y           Z
 ---------------------------------------------------------------------
      1          6           0       -1.177988   -0.371474    0.470709
      2          6           0       -0.168911    0.662815   -0.117564
      3          6           0        1.252234    0.408873    0.324606
      4          6           0        1.832442   -0.931580   -0.136898
      5          6           0        1.407179   -2.092826    0.744577
      6          6           0        0.017363   -2.670149    0.445869
      7          6           0       -1.110746   -1.799960   -0.150635
      8          6           0       -2.532545    0.382659    0.325501
      9          6           0       -2.174060    1.828275    0.551395
     10          6           0       -0.753839    2.018662    0.255095
     11          8           0        2.129574    1.408668   -0.229606
     12          6           0        3.371819    0.885797   -0.415867
     13          6           0        3.289926   -0.586524   -0.198064
     14          8           0       -1.250133    2.035240    1.620689
     15         17           0       -3.262385    0.349920   -1.340626
     16          8           0       -0.996288   -0.573662    1.858988
     17          1           0       -0.203695    0.581616   -1.208164
     18          6           0       -0.183599    3.309013   -0.240322
     19          8           0       -0.848563   -1.723410   -1.546690
     20          6           0       -2.414082   -2.560667    0.108402
     21          8           0        4.314051    1.557855   -0.709211
     22          6           0        4.376771   -1.339004   -0.088318
     23          1           0        1.325875    0.481774    1.414556
     24          1           0        1.486736   -1.106867   -1.163747
     25          1           0        1.456270   -1.770456    1.787414
     26          1           0        2.128677   -2.907688    0.640521
     27          1           0        0.113971   -3.480372   -0.281928
     28          1           0       -0.359068   -3.117930    1.366009
     29          1           0       -3.286877   -0.029210    0.990955
     30          1           0       -2.923279    2.599634    0.416491
     31          1           0       -0.812508    4.140543    0.079355
     32          1           0       -0.134269    3.300521   -1.330904
     33          1           0        0.827789    3.456660    0.134790
     34          1           0       -1.616478   -1.330397   -1.970630
     35          1           0       -2.658092   -2.540240    1.171964
     36          1           0       -2.286884   -3.599976   -0.198937
     37          1           0       -3.252332   -2.147592   -0.453308
     38          1           0        4.327549   -2.407311    0.084576
     39          1           0        5.354539   -0.879518   -0.174104
     40          1           0       -1.008302    0.307157    2.261453
 ---------------------------------------------------------------------
 Rotational constants (GHZ):      0.4614710      0.2556447      0.1971132
 Converting basis for Fermi contact spin-spin IFCMod=1.
 AO basis functions are being uncontracted.
   938 basis functions,   959 primitive gaussians,   959 cartesian basis functions
    83 alpha electrons       83 beta electrons
       nuclear repulsion energy      2090.4296150281 Hartrees.
 NAtoms=   40 NActive=   40 NUniq=   40 SFac= 1.00D+00 NAtFMM=   60 NAOKFM=F Big=F
 Nuclear repulsion after empirical dispersion term =     2090.3881592209 Hartrees.
 ExpMin= 1.03D-01 ExpMax= 4.23D+05 ExpMxC= 4.23D+05 IAcc=4 IRadAn=    199590 AccDes= 0.00D+00
 Harris functional with IExCor= 4639 and IRadAn=  199590 diagonalized for initial guess.
 HarFok:  IExCor= 4639 AccDes= 0.00D+00 IRadAn=    199590 IDoV= 1 UseB2=F ITyADJ=14
 ICtDFT=  3500011 ScaDFX=  1.000000  1.000000  1.000000  1.000000
 FoFCou: FMM=F IPFlag=           0 FMFlag=      100000 FMFlg1=           0
         NFxFlg=           0 DoJE=T BraDBF=F KetDBF=T FulRan=T
         wScrn=  0.000000 ICntrl=     500 IOpCl=  0 I1Cent=   200000004 NGrid=           0
         NMat0=    1 NMatS0=      1 NMatT0=    0 NMatD0=    1 NMtDS0=    0 NMtDT0=    0
 Petite list used in FoFCou.
 Integral accuracy reduced to 1.0D-05 until final iterations.
 Initial convergence to 1.0D-05 achieved.  Increase integral accuracy.
 SCF Done:  E(RwB97XD) =  -1419.35428328     A.U. after   14 cycles
            NFock= 14  Conv=0.68D-08     -V/T= 2.0034
 DoSCS=F DFT=T ScalE2(SS,OS)=  1.000000  1.000000
 NROrb=    934 NOA=    83 NOB=    83 NVA=   851 NVB=   851

 **** Warning!!: The largest alpha MO coefficient is  0.23906901D+02

          IDoAtm=1111111111111111111111111111111111111111
          Differentiating once with respect to Fermi-contact.
          Electric field/nuclear overlap derivatives assumed to be zero.
 Fermi Contact (FC) contribution to K (Hz):
                1             2             3             4             5 
      1  0.123400D+11
      2  0.173410D+02  0.123400D+11
      3  0.104580D+01  0.208047D+02  0.123400D+11
      4 -0.354447D-01  0.316456D+00  0.147330D+02  0.123400D+11
      5  0.539038D+00  0.958831D-01  0.979567D+00  0.168463D+02  0.123400D+11
      6  0.392129D-01 -0.609554D-01 -0.602961D-01 -0.402624D+00  0.162294D+02
      7  0.226012D+02  0.210829D+00 -0.110702D+00  0.904275D+00 -0.880555D+00
      8  0.178785D+02  0.257466D+01  0.170359D+01 -0.525926D-01 -0.828057D-01
      9  0.363062D+00  0.126115D+01  0.160343D+01  0.747445D-01 -0.612594D-02
     10 -0.179711D+00  0.210956D+02 -0.831845D+00  0.211827D+01 -0.612892D-01
     11  0.270004D+01  0.537047D+01 -0.205031D+02 -0.124375D+00 -0.198011D-01
     12  0.646824D-01  0.126847D+01  0.196421D+01  0.346920D+01  0.159317D+01
     13 -0.620584D-01  0.111085D+01 -0.850197D+00  0.211592D+02 -0.504680D+00
     14  0.143639D+00  0.116784D+01 -0.728314D-01 -0.996387D-02 -0.552823D-03
     15  0.489996D+00 -0.138831D+00 -0.604706D-01  0.404671D-02  0.680337D-01
     16 -0.219089D+02  0.657055D+00  0.732158D+00 -0.598195D-01  0.679363D+00
     17 -0.549381D+00  0.150543D+02 -0.892898D+00  0.380013D+00 -0.452603D-02
     18  0.914918D+00  0.186141D+01 -0.542635D-01 -0.298237D-01 -0.462957D-03
     19  0.195634D+01  0.710705D+00 -0.141927D+00  0.911651D+00 -0.547651D+00
     20  0.966446D+00  0.595947D+00 -0.180632D-01 -0.469932D-01  0.210247D+01
     21  0.606746D-01  0.137473D-01  0.146171D+00  0.211529D+00  0.515519D-01
     22 -0.131285D-02  0.614759D-01  0.157563D+01  0.107360D+01  0.115120D+01
     23  0.875028D-01 -0.224677D+00  0.175684D+02 -0.153959D+00  0.451495D+00
     24 -0.168665D-01  0.601199D+00 -0.793696D+00  0.152930D+02 -0.551915D+00
     25 -0.324173D-02 -0.190797D-01  0.820726D+00 -0.568779D+00  0.149653D+02
     26 -0.454996D-01 -0.343671D-01  0.136130D+01 -0.596465D+00  0.144632D+02
     27  0.569955D+00 -0.138397D-01 -0.251554D-02  0.147508D-01 -0.445489D+00
     28 -0.213742D-02 -0.345087D-02 -0.239484D-01  0.102851D+01 -0.437520D+00
     29 -0.275138D+00  0.434648D+00  0.720307D-01  0.997483D-03  0.348604D-02
     30  0.503038D+00  0.906344D-01  0.474896D-01  0.141510D-01 -0.125680D-02
     31  0.786360D-01  0.742321D+00 -0.355515D-01  0.237075D-01 -0.878786D-03
     32  0.222191D-01  0.703614D-01 -0.792971D-02  0.214127D-02 -0.325207D-03
     33 -0.171344D-01  0.786804D-01 -0.386713D-01  0.507495D-02  0.210906D-03
     34 -0.235778D-01 -0.139971D-01  0.635413D-03  0.239576D-02 -0.409147D-01
     35  0.126526D+00 -0.590655D-02  0.441472D-02  0.193274D-02 -0.243238D-01
     36  0.867305D+00  0.107157D+00  0.661344D-03 -0.182246D-02  0.488362D-01
     37  0.163282D+00 -0.171886D-01  0.116100D-03 -0.722448D-02  0.266053D+00
     38 -0.191134D-02  0.225250D-01 -0.888554D-01  0.511493D+00 -0.411866D-01
     39 -0.168710D-02  0.558191D-01 -0.107977D+00  0.104141D+01 -0.417694D-01
     40 -0.392545D+00  0.135697D+00 -0.189985D-01 -0.106275D-02 -0.793925D-02
                6             7             8             9            10 
      6  0.123400D+11
      7  0.198366D+02  0.123400D+11
      8  0.834937D+00 -0.595874D-01  0.123400D+11
      9  0.970752D-01  0.100009D+01  0.234751D+02  0.123400D+11
     10  0.215160D-01  0.141806D+01  0.692394D+00  0.142434D+02  0.123400D+11
     11 -0.139349D-01 -0.104499D+00  0.411451D+00  0.617955D-01 -0.227205D+00
     12  0.853065D-01  0.173304D-01  0.641572D-01  0.549708D-01 -0.133171D+00
     13  0.209337D+01 -0.101134D+00  0.225390D-02  0.321585D-01  0.330014D+00
     14  0.225539D-01  0.215859D+00  0.121407D+01 -0.248850D+02 -0.239375D+02
     15  0.207720D+00 -0.107868D+00 -0.342232D+02  0.718817D+01  0.148616D-01
     16  0.221180D+01  0.102962D+02  0.261474D+01 -0.154539D+00 -0.581927D-01
     17  0.154337D-01  0.218220D+00 -0.135209D-01  0.439292D-01 -0.158746D+00
     18 -0.579246D-02  0.112961D+00 -0.779390D-01  0.150371D+00  0.233767D+02
     19  0.925743D+01 -0.195114D+02 -0.979374D-01 -0.205323D-01  0.168858D+00
     20  0.147828D+01  0.182586D+02  0.123197D+01 -0.885822D-01  0.516095D-01
     21  0.556557D-01 -0.599424D-02  0.126310D-01 -0.701362D-04  0.638823D-03
     22 -0.788608D-01  0.110176D-01  0.143881D-02  0.152040D-01  0.140104D+00
     23 -0.110160D-01 -0.324996D-02 -0.396808D-01 -0.242160D-01  0.288188D+00
     24  0.509179D+00 -0.192364D-01  0.216999D-01  0.160393D-02 -0.415312D-02
     25 -0.470021D+00  0.111665D-01  0.249723D-02  0.178065D-02  0.505232D-04
     26 -0.443470D+00  0.862521D+00  0.993502D-02  0.739704D-02  0.521244D-02
     27  0.146028D+02 -0.815847D+00  0.322071D-01  0.337361D-01  0.177950D-01
     28  0.148374D+02 -0.336057D+00 -0.242473D-01 -0.283167D-02 -0.221076D-02
     29 -0.136249D-01  0.258486D-01  0.196355D+02 -0.250029D+00  0.846745D+00
     30  0.256037D-01  0.114286D+00  0.767856D+00  0.230763D+02 -0.878467D-01
     31 -0.148339D-02  0.308067D-01 -0.178281D-01  0.378509D+00 -0.884861D+00
     32  0.221497D-03 -0.395499D-02  0.496208D-02  0.898058D-01 -0.101749D+00
     33 -0.305738D-03  0.176380D-02  0.164525D-01  0.116081D+01 -0.969306D+00
     34  0.107246D+01 -0.304357D+00  0.487233D-03 -0.622283D-02  0.498451D-03
     35  0.154089D+00 -0.260166D+00  0.268807D-01  0.769785D-02  0.176652D-01
     36  0.578236D+00 -0.632922D+00  0.157225D+00 -0.527057D-02  0.548422D-01
     37  0.117337D+01 -0.561265D+00  0.612401D-01  0.111722D-02  0.421220D-02
     38  0.315903D-02  0.681486D-02  0.334190D-03 -0.104286D-03 -0.797674D-03
     39  0.497593D-02  0.467878D-02  0.604269D-03  0.173965D-02  0.129634D-01
     40  0.411019D-01  0.117896D+01  0.292619D-01  0.533062D-02 -0.402667D-03
               11            12            13            14            15 
     11  0.123400D+11
     12 -0.210597D+02  0.123400D+11
     13  0.679784D+01  0.321747D+02  0.123400D+11
     14  0.257840D-01  0.440315D-03 -0.152324D-02  0.123400D+11
     15  0.260069D-02  0.346824D-04  0.103712D-02 -0.199771D+01  0.123400D+11
     16  0.102362D+00  0.104851D-01 -0.140635D-02  0.105048D+01 -0.852996D+00
     17  0.359430D+00 -0.224775D-01 -0.224012D-01  0.677130D+00  0.120645D+00
     18  0.235674D+01  0.281984D-01  0.530675D-01  0.309824D+01  0.557951D-01
     19 -0.181019D-01  0.231098D-01  0.283726D-01  0.127506D-01 -0.112383D+01
     20  0.944947D-01  0.270945D-01  0.800357D-01  0.754423D-02  0.104059D+01
     21  0.874619D+01 -0.109029D+02  0.201975D+01  0.313311D-03 -0.143015D-02
     22  0.141444D+00  0.160785D+01  0.409009D+02 -0.106009D-02  0.138122D-02
     23  0.108818D+01 -0.170655D-01  0.149082D+00  0.117583D-01  0.235955D-01
     24  0.177614D-01  0.202294D+00 -0.102112D+01  0.178091D-01  0.324808D-03
     25 -0.471765D-02 -0.406434D-01  0.546378D-01  0.181413D-02 -0.123754D-02
     26  0.504402D-01 -0.624323D-01  0.526385D+00 -0.925744D-03 -0.800172D-03
     27 -0.400389D-03 -0.182846D-02 -0.398087D-01  0.101877D-01  0.495861D-01
     28  0.722645D-03  0.469014D-01  0.778625D-01  0.575761D-02  0.952189D-02
     29  0.100478D+00  0.657527D-02 -0.555538D-03 -0.324575D-01  0.153771D+01
     30 -0.464471D-02  0.136220D-02  0.252465D-02  0.144496D+01  0.285387D+00
     31  0.287317D+00  0.146122D-01  0.721708D-03  0.288733D+00  0.183478D-01
     32  0.809671D-02 -0.719267D-03 -0.695628D-03  0.136552D+01 -0.272181D-02
     33  0.244855D+00  0.164234D-01  0.609308D-03  0.626026D-01  0.239085D-01
     34  0.140175D-03  0.364530D-03 -0.127301D-02 -0.165807D-02 -0.620222D+00
     35 -0.143528D-02  0.471634D-03 -0.512155D-03  0.974068D-03  0.308742D-01
     36  0.949625D-02 -0.404602D-03  0.394760D-02 -0.477499D-03 -0.178928D-02
     37 -0.218076D-02 -0.120663D-03  0.512436D-02  0.100133D-02  0.179867D+00
     38  0.711683D-01  0.166011D+01  0.146959D+00 -0.872495D-04  0.305482D-04
     39 -0.122097D-01  0.963714D+00 -0.115445D+00 -0.127504D-03 -0.168525D-03
     40  0.957627D-02  0.531386D-03 -0.374364D-03 -0.132835D+01 -0.521752D-01
               16            17            18            19            20 
     16  0.123400D+11
     17  0.376080D+00  0.123400D+11
     18 -0.401333D-02  0.659065D-01  0.123400D+11
     19  0.528204D+00  0.107101D+00 -0.250563D-02  0.123400D+11
     20 -0.136305D+00 -0.318656D-01  0.746301D-01  0.807313D+00  0.123400D+11
     21  0.792210D-02  0.167124D-02 -0.205148D-03 -0.134602D-01  0.642006D-02
     22 -0.980841D-03  0.714685D-02  0.217863D-02  0.991397D-01  0.221198D-02
     23  0.937651D-01  0.337577D+00 -0.588829D-02  0.952623D-01  0.835848D-02
     24  0.238846D-01 -0.104451D-01  0.509431D-03 -0.199204D-01  0.754313D-02
     25  0.136775D+00 -0.808472D-03 -0.235767D-03  0.107508D+00 -0.348346D-01
     26  0.934223D-01  0.245498D-02 -0.902587D-03 -0.138217D-01 -0.246533D-01
     27  0.402807D+00  0.753212D-02 -0.514681D-03  0.134543D+01  0.157414D+00
     28  0.264553D+00 -0.527204D-04 -0.235702D-03  0.225071D+01  0.578924D+00
     29  0.357101D+00 -0.114890D-01  0.324766D-01  0.104572D-02  0.198511D-01
     30  0.174911D-01 -0.498623D-02  0.200245D+00 -0.197356D-02  0.976178D-02
     31 -0.287749D-03 -0.238531D-03  0.147504D+02  0.712225D-03  0.501085D-02
     32  0.964570D-02  0.495915D-02  0.144550D+02 -0.109739D-02 -0.256411D-03
     33 -0.387234D-02 -0.746703D-02  0.156077D+02 -0.103162D-02 -0.810210D-03
     34 -0.610694D-01  0.644115D-03  0.818967D-04  0.146309D+02  0.160942D+00
     35  0.105224D+00  0.244373D-02  0.691672D-03  0.777634D+00  0.145306D+02
     36 -0.330667D-01  0.574172D-02  0.151156D-01  0.935781D-01  0.148956D+02
     37  0.242201D-01  0.670722D-03 -0.247017D-03  0.266262D+00  0.145353D+02
     38  0.231894D-03 -0.505699D-03  0.378772D-02 -0.193258D-01  0.128249D-04
     39  0.137432D-03 -0.331882D-03  0.896197D-03 -0.167911D-01 -0.262122D-03
     40  0.157098D+02 -0.121356D-01 -0.172227D-01  0.828305D-01 -0.381423D-01
               21            22            23            24            25 
     21  0.123400D+11
     22  0.592745D+00  0.123400D+11
     23  0.664970D-01 -0.209602D-01  0.123400D+11
     24 -0.888711D-01  0.595853D+00  0.290375D+00  0.123400D+11
     25 -0.178010D-02 -0.159228D-01 -0.123436D-01  0.326374D+00  0.123400D+11
     26  0.168793D-01  0.239393D-01 -0.721492D-02  0.420609D-01 -0.459586D+00
     27 -0.156105D-02  0.713081D-02  0.288782D-02 -0.678295D-02  0.312579D+00
     28  0.570117D-02 -0.284841D-02  0.199734D-03 -0.418604D-02  0.272745D+00
     29  0.237828D-02 -0.103141D-03 -0.832200D-04 -0.263643D-03  0.249334D-03
     30 -0.119765D-03  0.178788D-02  0.295206D-02 -0.689666D-03  0.199176D-03
     31 -0.424098D-03 -0.112594D-02  0.808859D-03 -0.141545D-03  0.000000D+00
     32  0.622737D-03 -0.216951D-03  0.239626D-03  0.187189D-04  0.661794D-04
     33 -0.492545D-03 -0.184803D-03  0.121609D-02  0.392952D-03 -0.492977D-04
     34 -0.447370D-03  0.213414D-02 -0.232340D-03 -0.172368D-02  0.702773D-03
     35 -0.469224D-04  0.353632D-03 -0.980500D-04 -0.585252D-03  0.400215D-02
     36  0.178198D-03 -0.119425D-03 -0.124625D-03  0.858356D-03 -0.509303D-03
     37  0.211073D-03  0.265487D-02 -0.276923D-03  0.368450D-03 -0.514046D-02
     38 -0.976478D-01  0.187751D+02  0.124424D-03 -0.128121D+00  0.199148D-03
     39 -0.720883D-01  0.195710D+02 -0.418136D-03 -0.138213D+00  0.132645D-02
     40  0.971121D-04 -0.159903D-03 -0.169600D-02 -0.563441D-04 -0.803523D-03
               26            27            28            29            30 
     26  0.123400D+11
     27  0.303076D+00  0.123400D+11
     28  0.238383D-01 -0.475918D+00  0.123400D+11
     29  0.300602D-03 -0.624531D-03  0.672689D-03  0.123400D+11
     30  0.830618D-03  0.400910D-02 -0.907749D-03  0.334701D-01  0.123400D+11
     31 -0.146516D-03  0.401962D-03  0.257981D-04  0.498727D-02 -0.530090D-02
     32  0.331620D-04  0.304871D-04  0.306763D-05  0.389584D-02 -0.359180D-02
     33 -0.118073D-03 -0.381133D-04  0.117902D-04  0.378362D-01 -0.216529D-01
     34  0.454073D-02  0.253035D-01  0.840051D-01  0.832508D-03  0.851854D-04
     35  0.235855D-02  0.357694D-02  0.674384D-02  0.259545D-02 -0.163230D-03
     36 -0.104832D-02 -0.125338D-02  0.625490D-03  0.772987D-02 -0.523193D-03
     37  0.911649D-02 -0.127202D-01  0.574027D-01  0.685205D-02 -0.375055D-03
     38 -0.736469D-02  0.787628D-04  0.108816D-02 -0.241738D-04 -0.464989D-04
     39 -0.302165D-03  0.583519D-03  0.207823D-03 -0.246503D-04  0.103669D-03
     40 -0.178599D-02  0.941844D-02  0.150008D-01 -0.564587D-02 -0.475257D-02
               31            32            33            34            35 
     31  0.123400D+11
     32 -0.424036D+00  0.123400D+11
     33 -0.399400D+00 -0.491334D+00  0.123400D+11
     34  0.869139D-04  0.954888D-05  0.791860D-05  0.123400D+11
     35 -0.950530D-04  0.316554D-04  0.717769D-04 -0.207622D-01  0.123400D+11
     36  0.784136D-03 -0.787912D-04 -0.247441D-03 -0.598961D-02 -0.430382D+00
     37 -0.192714D-03 -0.928971D-05  0.194503D-03 -0.859205D-02 -0.402710D+00
     38  0.665410D-03  0.304614D-04  0.210835D-03 -0.514542D-03 -0.467641D-04
     39  0.538175D-03  0.533222D-04  0.140610D-03 -0.480537D-03 -0.407930D-04
     40  0.211745D-03 -0.192247D-03  0.664477D-03 -0.408264D-02  0.106321D-02
               36            37            38            39            40 
     36  0.123400D+11
     37 -0.411019D+00  0.123400D+11
     38  0.192201D-05 -0.253093D-04  0.123400D+11
     39 -0.381774D-05 -0.134517D-04 -0.114433D-01  0.123400D+11
     40 -0.996811D-03  0.315996D-02 -0.227175D-04 -0.403995D-04  0.123400D+11
 Fermi Contact (FC) contribution to J (Hz):
                1             2             3             4             5 
      1  0.243533D+11
      2  0.342228D+02  0.243533D+11
      3  0.206390D+01  0.410585D+02  0.243533D+11
      4 -0.699510D-01  0.624534D+00  0.290760D+02  0.243533D+11
      5  0.106381D+01  0.189228D+00  0.193320D+01  0.332467D+02  0.243533D+11
      6  0.773875D-01 -0.120297D+00 -0.118996D+00 -0.794588D+00  0.320291D+02
      7  0.446040D+02  0.416076D+00 -0.218473D+00  0.178461D+01 -0.173780D+01
      8  0.352837D+02  0.508115D+01  0.336209D+01 -0.103793D+00 -0.163419D+00
      9  0.716512D+00  0.248891D+01  0.316441D+01  0.147510D+00 -0.120897D-01
     10 -0.354663D+00  0.416326D+02 -0.164167D+01  0.418045D+01 -0.120956D+00
     11 -0.287333D+01 -0.571515D+01  0.218190D+02  0.132358D+00  0.210720D-01
     12  0.127652D+00  0.250336D+01  0.387643D+01  0.684654D+01  0.314416D+01
     13 -0.122474D+00  0.219229D+01 -0.167789D+01  0.417582D+02 -0.995998D+00
     14 -0.152857D+00 -0.124279D+01  0.775058D-01  0.106034D-01  0.588304D-03
     15  0.377162D+00 -0.106862D+00 -0.465457D-01  0.311485D-02  0.523672D-01
     16  0.233151D+02 -0.699225D+00 -0.779149D+00  0.636588D-01 -0.722965D+00
     17 -0.431094D+01  0.118130D+03 -0.700649D+01  0.298193D+01 -0.355153D-01
     18  0.180561D+01  0.367353D+01 -0.107090D+00 -0.588578D-01 -0.913658D-03
     19 -0.208190D+01 -0.756318D+00  0.151036D+00 -0.970161D+00  0.582800D+00
     20  0.190731D+01  0.117612D+01 -0.356481D-01 -0.927423D-01  0.414927D+01
     21 -0.645687D-01 -0.146296D-01 -0.155552D+00 -0.225105D+00 -0.548606D-01
     22 -0.259095D-02  0.121324D+00  0.310954D+01  0.211877D+01  0.227192D+01
     23  0.686626D+00 -0.176302D+01  0.137857D+03 -0.120810D+01  0.354284D+01
     24 -0.132350D+00  0.471755D+01 -0.622805D+01  0.120002D+03 -0.433082D+01
     25 -0.254375D-01 -0.149716D+00  0.644016D+01 -0.446315D+01  0.117431D+03
     26 -0.357031D+00 -0.269676D+00  0.106820D+02 -0.468040D+01  0.113491D+03
     27  0.447239D+01 -0.108599D+00 -0.197392D-01  0.115748D+00 -0.349571D+01
     28 -0.167721D-01 -0.270787D-01 -0.187920D+00  0.807065D+01 -0.343318D+01
     29 -0.215898D+01  0.341064D+01  0.565218D+00  0.782715D-02  0.273546D-01
     30  0.394729D+01  0.711200D+00  0.372646D+00  0.111041D+00 -0.986196D-02
     31  0.617049D+00  0.582492D+01 -0.278969D+00  0.186030D+00 -0.689575D-02
     32  0.174351D+00  0.552119D+00 -0.622236D-01  0.168023D-01 -0.255187D-02
     33 -0.134452D+00  0.617397D+00 -0.303450D+00  0.398227D-01  0.165496D-02
     34 -0.185013D+00 -0.109834D+00  0.498602D-02  0.187993D-01 -0.321054D+00
     35  0.992834D+00 -0.463482D-01  0.346419D-01  0.151660D-01 -0.190867D+00
     36  0.680566D+01  0.840853D+00  0.518950D-02 -0.143006D-01  0.383213D+00
     37  0.128126D+01 -0.134877D+00  0.911024D-03 -0.566898D-01  0.208769D+01
     38 -0.149981D-01  0.176751D+00 -0.697240D+00  0.401364D+01 -0.323187D+00
     39 -0.132385D-01  0.438007D+00 -0.847286D+00  0.817188D+01 -0.327761D+00
     40 -0.308026D+01  0.106480D+01 -0.149079D+00 -0.833927D-02 -0.622985D-01
                6             7             8             9            10 
      6  0.243533D+11
      7  0.391480D+02  0.243533D+11
      8  0.164777D+01 -0.117597D+00  0.243533D+11
      9  0.191580D+00  0.197370D+01  0.463286D+02  0.243533D+11
     10  0.424623D-01  0.279857D+01  0.136646D+01  0.281098D+02  0.243533D+11
     11  0.148293D-01  0.111205D+00 -0.437858D+00 -0.657616D-01  0.241787D+00
     12  0.168355D+00  0.342020D-01  0.126616D+00  0.108486D+00 -0.262817D+00
     13  0.413132D+01 -0.199591D+00  0.444813D-02  0.634655D-01  0.651290D+00
     14 -0.240014D-01 -0.229713D+00 -0.129199D+01  0.264821D+02  0.254738D+02
     15  0.159887D+00 -0.830290D-01 -0.263424D+02  0.553291D+01  0.114394D-01
     16 -0.235375D+01 -0.109570D+02 -0.278255D+01  0.164457D+00  0.619275D-01
     17  0.121106D+00  0.171235D+01 -0.106097D+00  0.344708D+00 -0.124567D+01
     18 -0.114316D-01  0.222931D+00 -0.153815D+00  0.296762D+00  0.461346D+02
     19 -0.985158D+01  0.207637D+02  0.104223D+00  0.218501D-01 -0.179695D+00
     20  0.291743D+01  0.360339D+02  0.243133D+01 -0.174819D+00  0.101853D+00
     21 -0.592277D-01  0.637895D-02 -0.134416D-01  0.746376D-04 -0.679823D-03
     22 -0.155634D+00  0.217435D-01  0.283954D-02  0.300055D-01  0.276499D+00
     23 -0.864414D-01 -0.255021D-01 -0.311371D+00 -0.190021D+00  0.226138D+01
     24  0.399548D+01 -0.150946D+00  0.170277D+00  0.125859D-01 -0.325891D-01
     25 -0.368821D+01  0.876226D-01  0.195955D-01  0.139726D-01  0.396450D-03
     26 -0.347987D+01  0.676812D+01  0.779591D-01  0.580439D-01  0.409015D-01
     27  0.114586D+03 -0.640187D+01  0.252726D+00  0.264724D+00  0.139635D+00
     28  0.116427D+03 -0.263701D+01 -0.190267D+00 -0.222199D-01 -0.173476D-01
     29 -0.106913D+00  0.202831D+00  0.154078D+03 -0.196196D+01  0.664433D+01
     30  0.200910D+00  0.896790D+00  0.602529D+01  0.181078D+03 -0.689325D+00
     31 -0.116400D-01  0.241738D+00 -0.139896D+00  0.297012D+01 -0.694342D+01
     32  0.173806D-02 -0.310344D-01  0.389369D-01  0.704698D+00 -0.798413D+00
     33 -0.239910D-02  0.138403D-01  0.129101D+00  0.910875D+01 -0.760605D+01
     34  0.841552D+01 -0.238826D+01  0.382327D-02 -0.488299D-01  0.391129D-02
     35  0.120912D+01 -0.204150D+01  0.210930D+00  0.604043D-01  0.138617D+00
     36  0.453736D+01 -0.496647D+01  0.123373D+01 -0.413576D-01  0.430342D+00
     37  0.920729D+01 -0.440419D+01  0.480545D+00  0.876674D-02  0.330527D-01
     38  0.247886D-01  0.534756D-01  0.262236D-02 -0.818322D-03 -0.625927D-02
     39  0.390457D-01  0.367139D-01  0.474164D-02  0.136509D-01  0.101722D+00
     40  0.322523D+00  0.925118D+01  0.229615D+00  0.418288D-01 -0.315969D-02
               11            12            13            14            15 
     11  0.708114D+10
     12  0.224114D+02  0.243533D+11
     13 -0.723413D+01  0.634976D+02  0.243533D+11
     14  0.147958D-01 -0.468575D-03  0.162100D-02  0.708114D+10
     15 -0.107943D-02  0.266959D-04  0.798298D-03  0.829165D+00  0.370462D+10
     16  0.587390D-01 -0.111581D-01  0.149661D-02  0.602806D+00  0.354042D+00
     17 -0.152085D+01 -0.176379D+00 -0.175780D+00 -0.286512D+01  0.369233D+00
     18 -0.250800D+01  0.556503D-01  0.104730D+00 -0.329709D+01  0.429469D-01
     19 -0.103875D-01 -0.245931D-01 -0.301936D-01  0.731674D-02  0.466455D+00
     20 -0.100559D+00  0.534717D-01  0.157952D+00 -0.802843D-02  0.800971D+00
     21  0.501888D+01  0.116027D+02 -0.214938D+01  0.179789D-03  0.593594D-03
     22 -0.150521D+00  0.317312D+01  0.807189D+02  0.112812D-02  0.106316D-02
     23 -0.460440D+01 -0.133911D+00  0.116983D+01 -0.497525D-01  0.722138D-01
     24 -0.751533D-01  0.158738D+01 -0.801265D+01 -0.753551D-01  0.994071D-03
     25  0.199616D-01 -0.318925D+00  0.428737D+00 -0.767608D-02 -0.378747D-02
     26 -0.213426D+00 -0.489901D+00  0.413049D+01  0.391707D-02 -0.244892D-02
     27  0.169416D-02 -0.143477D-01 -0.312375D+00 -0.431069D-01  0.151758D+00
     28 -0.305771D-02  0.368031D+00  0.610979D+00 -0.243620D-01  0.291417D-01
     29 -0.425150D+00  0.515955D-01 -0.435926D-02  0.137337D+00  0.470614D+01
     30  0.196530D-01  0.106890D-01  0.198107D-01 -0.611404D+01  0.873423D+00
     31 -0.121572D+01  0.114661D+00  0.566317D-02 -0.122171D+01  0.561532D-01
     32 -0.342594D-01 -0.564402D-02 -0.545853D-02 -0.577789D+01 -0.833006D-02
     33 -0.103605D+01  0.128873D+00  0.478118D-02 -0.264889D+00  0.731717D-01
     34 -0.593119D-03  0.286043D-02 -0.998921D-02  0.701576D-02 -0.189818D+01
     35  0.607305D-02  0.370087D-02 -0.401883D-02 -0.412155D-02  0.944903D-01
     36 -0.401812D-01 -0.317487D-02  0.309764D-01  0.202043D-02 -0.547609D-02
     37  0.922741D-02 -0.946834D-03  0.402104D-01 -0.423690D-02  0.550480D+00
     38 -0.301133D+00  0.130267D+02  0.115318D+01  0.369176D-03  0.934923D-04
     39  0.516625D-01  0.756217D+01 -0.905882D+00  0.539504D-03 -0.515769D-03
     40 -0.405198D-01  0.416974D-02 -0.293760D-02  0.562063D+01 -0.159682D+00
               16            17            18            19            20 
     16  0.708114D+10
     17 -0.159130D+01  0.385007D+12
     18  0.427090D-02  0.517162D+00  0.243533D+11
     19  0.303103D+00 -0.453172D+00  0.266644D-02  0.708114D+10
     20  0.145053D+00 -0.250046D+00  0.147284D+00 -0.859127D+00  0.243533D+11
     21  0.454599D-02 -0.707145D-02  0.218315D-03 -0.772395D-02 -0.683211D-02
     22  0.104379D-02  0.560806D-01  0.429959D-02 -0.105503D+00  0.436540D-02
     23 -0.396746D+00  0.105324D+02 -0.462048D-01 -0.403081D+00  0.655882D-01
     24 -0.101062D+00 -0.325887D+00  0.399745D-02  0.842888D-01  0.591902D-01
     25 -0.578730D+00 -0.252243D-01 -0.185004D-02 -0.454897D+00 -0.273343D+00
     26 -0.395295D+00  0.765953D-01 -0.708252D-02  0.584833D-01 -0.193452D+00
     27 -0.170439D+01  0.235002D+00 -0.403865D-02 -0.569289D+01  0.123521D+01
     28 -0.111940D+01 -0.164488D-02 -0.184953D-02 -0.952339D+01  0.454276D+01
     29 -0.151099D+01 -0.358456D+00  0.254841D+00 -0.442474D-02  0.155770D+00
     30 -0.740097D-01 -0.155570D+00  0.157130D+01  0.835066D-02  0.765997D-01
     31  0.121754D-02 -0.744216D-02  0.115745D+03 -0.301362D-02  0.393196D-01
     32 -0.408136D-01  0.154725D+00  0.113427D+03  0.464334D-02 -0.201203D-02
     33  0.163849D-01 -0.232971D+00  0.122472D+03  0.436505D-02 -0.635764D-02
     34  0.258401D+00  0.200964D-01  0.642635D-03 -0.619073D+02  0.126289D+01
     35 -0.445231D+00  0.762444D-01  0.542748D-02 -0.329038D+01  0.114021D+03
     36  0.139914D+00  0.179141D+00  0.118611D+00 -0.395955D+00  0.116884D+03
     37 -0.102482D+00  0.209265D-01 -0.193832D-02 -0.112663D+01  0.114057D+03
     38 -0.981207D-03 -0.157778D-01  0.297218D-01  0.817729D-01  0.100635D-03
     39 -0.581510D-03 -0.103547D-01  0.703237D-02  0.710476D-01 -0.205685D-02
     40 -0.664727D+02 -0.378630D+00 -0.135145D+00 -0.350479D+00 -0.299299D+00
               21            22            23            24            25 
     21  0.708114D+10
     22 -0.630787D+00  0.243533D+11
     23 -0.281367D+00 -0.164473D+00  0.385007D+12
     24  0.376038D+00  0.467560D+01  0.905968D+01  0.385007D+12
     25  0.753210D-02 -0.124945D+00 -0.385120D+00  0.101828D+02  0.385007D+12
     26 -0.714211D-01  0.187849D+00 -0.225105D+00  0.131230D+01 -0.143390D+02
     27  0.660522D-02  0.559548D-01  0.900998D-01 -0.211628D+00  0.975246D+01
     28 -0.241232D-01 -0.223512D-01  0.623170D-02 -0.130604D+00  0.850964D+01
     29 -0.100632D-01 -0.809337D-03 -0.259646D-02 -0.822564D-02  0.777921D-02
     30  0.506760D-03  0.140293D-01  0.921040D-01 -0.215176D-01  0.621427D-02
     31  0.179447D-02 -0.883512D-02  0.252364D-01 -0.441620D-02  0.801238D-05
     32 -0.263497D-02 -0.170239D-02  0.747631D-02  0.584029D-03  0.206479D-02
     33  0.208409D-02 -0.145013D-02  0.379419D-01  0.122601D-01 -0.153809D-02
     34  0.189294D-02  0.167464D-01 -0.724899D-02 -0.537788D-01  0.219265D-01
     35  0.198542D-03  0.277491D-02 -0.305916D-02 -0.182598D-01  0.124867D+00
     36 -0.754006D-03 -0.937119D-03 -0.388829D-02  0.267807D-01 -0.158902D-01
     37 -0.893106D-03  0.208325D-01 -0.864000D-02  0.114956D-01 -0.160382D+00
     38  0.413174D+00  0.147327D+03  0.388203D-02 -0.399736D+01  0.621342D-02
     39  0.305025D+00  0.153572D+03 -0.130458D-01 -0.431225D+01  0.413852D-01
     40 -0.410908D-03 -0.125474D-02 -0.529152D-01 -0.175793D-02 -0.250699D-01
               26            27            28            29            30 
     26  0.385007D+12
     27  0.945597D+01  0.385007D+12
     28  0.743753D+00 -0.148486D+02  0.385007D+12
     29  0.937876D-02 -0.194853D-01  0.209879D-01  0.385007D+12
     30  0.259152D-01  0.125084D+00 -0.283217D-01  0.104426D+01  0.385007D+12
     31 -0.457130D-02  0.125412D-01  0.804898D-03  0.155603D+00 -0.165388D+00
     32  0.103465D-02  0.951196D-03  0.957098D-04  0.121550D+00 -0.112064D+00
     33 -0.368389D-02 -0.118913D-02  0.367854D-03  0.118049D+01 -0.675570D+00
     34  0.141671D+00  0.789469D+00  0.262096D+01  0.259742D-01  0.265778D-02
     35  0.735867D-01  0.111600D+00  0.210407D+00  0.809778D-01 -0.509277D-02
     36 -0.327076D-01 -0.391055D-01  0.195152D-01  0.241172D+00 -0.163236D-01
     37  0.284434D+00 -0.396870D+00  0.179096D+01  0.213784D+00 -0.117017D-01
     38 -0.229778D+00  0.245740D-02  0.339507D-01 -0.754222D-03 -0.145076D-02
     39 -0.942753D-02  0.182058D-01  0.648407D-02 -0.769088D-03  0.323446D-02
     40 -0.557228D-01  0.293855D+00  0.468023D+00 -0.176151D+00 -0.148280D+00
               31            32            33            34            35 
     31  0.385007D+12
     32 -0.132299D+02  0.385007D+12
     33 -0.124613D+02 -0.153296D+02  0.385007D+12
     34  0.271171D-02  0.297925D-03  0.247060D-03  0.385007D+12
     35 -0.296565D-02  0.987647D-03  0.223943D-02 -0.647780D+00  0.385007D+12
     36  0.244650D-01 -0.245828D-02 -0.772014D-02 -0.186876D+00 -0.134279D+02
     37 -0.601268D-02 -0.289839D-03  0.606849D-02 -0.268072D+00 -0.125645D+02
     38  0.207608D-01  0.950394D-03  0.657804D-02 -0.160537D-01 -0.145904D-02
     39  0.167910D-01  0.166365D-02  0.438702D-02 -0.149927D-01 -0.127274D-02
     40  0.660643D-02 -0.599811D-02  0.207317D-01 -0.127378D+00  0.331722D-01
               36            37            38            39            40 
     36  0.385007D+12
     37 -0.128238D+02  0.385007D+12
     38  0.599665D-04 -0.789650D-03  0.385007D+12
     39 -0.119113D-03 -0.419694D-03 -0.357032D+00  0.385007D+12
     40 -0.311004D-01  0.985905D-01 -0.708785D-03 -0.126046D-02  0.385007D+12
 End of Minotr F.D. properties file   721 does not exist.
 End of Minotr F.D. properties file   722 does not exist.
 End of Minotr F.D. properties file   788 does not exist.

 **********************************************************************

            Population analysis using the SCF density.

 **********************************************************************

 Orbital symmetries:
       Occupied  (A) (A) (A) (A) (A) (A) (A) (A) (A) (A) (A) (A)
                 (A) (A) (A) (A) (A) (A) (A) (A) (A) (A) (A) (A)
                 (A) (A) (A) (A) (A) (A) (A) (A) (A) (A) (A) (A)
                 (A) (A) (A) (A) (A) (A) (A) (A) (A) (A) (A) (A)
                 (A) (A) (A) (A) (A) (A) (A) (A) (A) (A) (A) (A)
                 (A) (A) (A) (A) (A) (A) (A) (A) (A) (A) (A) (A)
                 (A) (A) (A) (A) (A) (A) (A) (A) (A) (A) (A)
       Virtual   (A) (A) (A) (A) (A) (A) (A) (A) (A) (A) (A) (A)
                 (A) (A) (A) (A) (A) (A) (A) (A) (A) (A) (A) (A)
                 (A) (A) (A) (A) (A) (A) (A) (A) (A) (A) (A) (A)
                 (A) (A) (A) (A) (A) (A) (A) (A) (A) (A) (A) (A)
                 (A) (A) (A) (A) (A) (A) (A) (A) (A) (A) (A) (A)
                 (A) (A) (A) (A) (A) (A) (A) (A) (A) (A) (A) (A)
                 (A) (A) (A) (A) (A) (A) (A) (A) (A) (A) (A) (A)
                 (A) (A) (A) (A) (A) (A) (A) (A) (A) (A) (A) (A)
                 (A) (A) (A) (A) (A) (A) (A) (A) (A) (A) (A) (A)
                 (A) (A) (A) (A) (A) (A) (A) (A) (A) (A) (A) (A)
                 (A) (A) (A) (A) (A) (A) (A) (A) (A) (A) (A) (A)
                 (A) (A) (A) (A) (A) (A) (A) (A) (A) (A) (A) (A)
                 (A) (A) (A) (A) (A) (A) (A) (A) (A) (A) (A) (A)
                 (A) (A) (A) (A) (A) (A) (A) (A) (A) (A) (A) (A)
                 (A) (A) (A) (A) (A) (A) (A) (A) (A) (A) (A) (A)
                 (A) (A) (A) (A) (A) (A) (A) (A) (A) (A) (A) (A)
                 (A) (A) (A) (A) (A) (A) (A) (A) (A) (A) (A) (A)
                 (A) (A) (A) (A) (A) (A) (A) (A) (A) (A) (A) (A)
                 (A) (A) (A) (A) (A) (A) (A) (A) (A) (A) (A) (A)
                 (A) (A) (A) (A) (A) (A) (A) (A) (A) (A) (A) (A)
                 (A) (A) (A) (A) (A) (A) (A) (A) (A) (A) (A) (A)
                 (A) (A) (A) (A) (A) (A) (A) (A) (A) (A) (A) (A)
                 (A) (A) (A) (A) (A) (A) (A) (A) (A) (A) (A) (A)
                 (A) (A) (A) (A) (A) (A) (A) (A) (A) (A) (A) (A)
                 (A) (A) (A) (A) (A) (A) (A) (A) (A) (A) (A) (A)
                 (A) (A) (A) (A) (A) (A) (A) (A) (A) (A) (A) (A)
                 (A) (A) (A) (A) (A) (A) (A) (A) (A) (A) (A) (A)
                 (A) (A) (A) (A) (A) (A) (A) (A) (A) (A) (A) (A)
                 (A) (A) (A) (A) (A) (A) (A) (A) (A) (A) (A) (A)
                 (A) (A) (A) (A) (A) (A) (A) (A) (A) (A) (A) (A)
                 (A) (A) (A) (A) (A) (A) (A) (A) (A) (A) (A) (A)
                 (A) (A) (A) (A) (A) (A) (A) (A) (A) (A) (A) (A)
                 (A) (A) (A) (A) (A) (A) (A) (A) (A) (A) (A) (A)
                 (A) (A) (A) (A) (A) (A) (A) (A) (A) (A) (A) (A)
                 (A) (A) (A) (A) (A) (A) (A) (A) (A) (A) (A) (A)
                 (A) (A) (A) (A) (A) (A) (A) (A) (A) (A) (A) (A)
                 (A) (A) (A) (A) (A) (A) (A) (A) (A) (A) (A) (A)
                 (A) (A) (A) (A) (A) (A) (A) (A) (A) (A) (A) (A)
                 (A) (A) (A) (A) (A) (A) (A) (A) (A) (A) (A) (A)
                 (A) (A) (A) (A) (A) (A) (A) (A) (A) (A) (A) (A)
                 (A) (A) (A) (A) (A) (A) (A) (A) (A) (A) (A) (A)
                 (A) (A) (A) (A) (A) (A) (A) (A) (A) (A) (A) (A)
                 (A) (A) (A) (A) (A) (A) (A) (A) (A) (A) (A) (A)
                 (A) (A) (A) (A) (A) (A) (A) (A) (A) (A) (A) (A)
                 (A) (A) (A) (A) (A) (A) (A) (A) (A) (A) (A) (A)
                 (A) (A) (A) (A) (A) (A) (A) (A) (A) (A) (A) (A)
                 (A) (A) (A) (A) (A) (A) (A) (A) (A) (A) (A) (A)
                 (A) (A) (A) (A) (A) (A) (A) (A) (A) (A) (A) (A)
                 (A) (A) (A) (A) (A) (A) (A) (A) (A) (A) (A) (A)
                 (A) (A) (A) (A) (A) (A) (A) (A) (A) (A) (A) (A)
                 (A) (A) (A) (A) (A) (A) (A) (A) (A) (A) (A) (A)
                 (A) (A) (A) (A) (A) (A) (A) (A) (A) (A) (A) (A)
                 (A) (A) (A) (A) (A) (A) (A) (A) (A) (A) (A) (A)
                 (A) (A) (A) (A) (A) (A) (A) (A) (A) (A) (A) (A)
                 (A) (A) (A) (A) (A) (A) (A) (A) (A) (A) (A) (A)
                 (A) (A) (A) (A) (A) (A) (A) (A) (A) (A) (A) (A)
                 (A) (A) (A) (A) (A) (A) (A) (A) (A) (A) (A) (A)
                 (A) (A) (A) (A) (A) (A) (A) (A) (A) (A) (A) (A)
                 (A) (A) (A) (A) (A) (A) (A) (A) (A) (A) (A) (A)
                 (A) (A) (A) (A) (A) (A) (A) (A) (A) (A) (A) (A)
                 (A) (A) (A) (A) (A) (A) (A) (A) (A) (A) (A) (A)
                 (A) (A) (A) (A) (A) (A) (A) (A) (A) (A) (A) (A)
                 (A) (A) (A) (A) (A) (A) (A) (A) (A) (A) (A) (A)
                 (A) (A) (A) (A) (A) (A) (A) (A) (A) (A) (A) (A)
                 (A) (A) (A) (A) (A) (A) (A) (A) (A) (A) (A) (A)
                 (A) (A) (A) (A) (A) (A) (A) (A) (A) (A) (A) (A)
                 (A) (A) (A) (A) (A) (A) (A) (A) (A) (A) (A) (A)
                 (A) (A) (A) (A) (A) (A) (A) (A) (A) (A) (A) (A)
                 (A) (A) (A) (A) (A) (A) (A) (A) (A) (A) (A) (A)
                 (A) (A) (A) (A) (A) (A) (A) (A) (A) (A) (A) (A)
                 (A) (A) (A) (A) (A) (A) (A) (A) (A) (A) (A)
 The electronic state is 1-A.
 Alpha  occ. eigenvalues -- -101.71222 -19.29469 -19.29379 -19.26172 -19.25583
 Alpha  occ. eigenvalues --  -19.23185 -10.41591 -10.37975 -10.37942 -10.37530
 Alpha  occ. eigenvalues --  -10.37202 -10.36514 -10.36305 -10.31853 -10.31484
 Alpha  occ. eigenvalues --  -10.30979 -10.30445 -10.29520 -10.29238 -10.29034
 Alpha  occ. eigenvalues --  -10.28413  -9.60023  -7.34697  -7.33804  -7.33760
 Alpha  occ. eigenvalues --   -1.21961  -1.21366  -1.15499  -1.13854  -1.13229
 Alpha  occ. eigenvalues --   -0.99462  -0.95240  -0.92566  -0.90189  -0.87568
 Alpha  occ. eigenvalues --   -0.86016  -0.84257  -0.80840  -0.78296  -0.76348
 Alpha  occ. eigenvalues --   -0.75450  -0.72455  -0.69137  -0.68334  -0.66057
 Alpha  occ. eigenvalues --   -0.64941  -0.63869  -0.61367  -0.60344  -0.58704
 Alpha  occ. eigenvalues --   -0.57682  -0.57517  -0.56386  -0.55945  -0.54290
 Alpha  occ. eigenvalues --   -0.54176  -0.53105  -0.52937  -0.51743  -0.51523
 Alpha  occ. eigenvalues --   -0.51072  -0.49838  -0.49172  -0.48885  -0.48716
 Alpha  occ. eigenvalues --   -0.47434  -0.46703  -0.45984  -0.45545  -0.45423
 Alpha  occ. eigenvalues --   -0.43770  -0.43701  -0.43155  -0.42055  -0.41073
 Alpha  occ. eigenvalues --   -0.40767  -0.39639  -0.38831  -0.38214  -0.36852
 Alpha  occ. eigenvalues --   -0.36356  -0.35778  -0.35232
 Alpha virt. eigenvalues --    0.02169   0.06098   0.11213   0.12034   0.12952
 Alpha virt. eigenvalues --    0.13440   0.13489   0.14547   0.14790   0.15518
 Alpha virt. eigenvalues --    0.16216   0.16626   0.17057   0.17804   0.17949
 Alpha virt. eigenvalues --    0.18293   0.18750   0.19056   0.19480   0.20482
 Alpha virt. eigenvalues --    0.21032   0.21546   0.22487   0.22766   0.23276
 Alpha virt. eigenvalues --    0.24658   0.25633   0.26161   0.26741   0.27095
 Alpha virt. eigenvalues --    0.28702   0.29772   0.29877   0.30659   0.31562
 Alpha virt. eigenvalues --    0.33191   0.33672   0.33962   0.34279   0.34723
 Alpha virt. eigenvalues --    0.35680   0.36674   0.36981   0.37783   0.38141
 Alpha virt. eigenvalues --    0.38557   0.39209   0.39887   0.41253   0.41506
 Alpha virt. eigenvalues --    0.42087   0.43616   0.43986   0.44959   0.45429
 Alpha virt. eigenvalues --    0.45843   0.46795   0.47558   0.48503   0.49946
 Alpha virt. eigenvalues --    0.50465   0.51150   0.51791   0.52410   0.52495
 Alpha virt. eigenvalues --    0.53199   0.54210   0.55223   0.55728   0.56521
 Alpha virt. eigenvalues --    0.56602   0.58205   0.58969   0.60093   0.60318
 Alpha virt. eigenvalues --    0.61547   0.62126   0.62238   0.63230   0.63696
 Alpha virt. eigenvalues --    0.64290   0.64481   0.64838   0.65041   0.65460
 Alpha virt. eigenvalues --    0.66376   0.66558   0.67147   0.67459   0.67717
 Alpha virt. eigenvalues --    0.68088   0.68846   0.69078   0.69877   0.70483
 Alpha virt. eigenvalues --    0.70671   0.71522   0.71687   0.71913   0.72997
 Alpha virt. eigenvalues --    0.74748   0.74973   0.75294   0.76888   0.77626
 Alpha virt. eigenvalues --    0.78375   0.79343   0.81408   0.82013   0.82786
 Alpha virt. eigenvalues --    0.83491   0.86543   0.86751   0.88099   0.88935
 Alpha virt. eigenvalues --    0.89297   0.90042   0.90965   0.93254   0.94203
 Alpha virt. eigenvalues --    0.95758   0.96570   0.97330   0.98327   0.99683
 Alpha virt. eigenvalues --    1.00699   1.01360   1.01650   1.03152   1.04610
 Alpha virt. eigenvalues --    1.05294   1.06182   1.07789   1.08205   1.08781
 Alpha virt. eigenvalues --    1.10095   1.11182   1.12120   1.12905   1.14258
 Alpha virt. eigenvalues --    1.14953   1.16029   1.17593   1.20462   1.20907
 Alpha virt. eigenvalues --    1.21945   1.22365   1.24494   1.25408   1.27754
 Alpha virt. eigenvalues --    1.28945   1.31242   1.32945   1.33791   1.34804
 Alpha virt. eigenvalues --    1.36718   1.37153   1.39191   1.39903   1.40627
 Alpha virt. eigenvalues --    1.41669   1.42370   1.43658   1.44873   1.46618
 Alpha virt. eigenvalues --    1.47146   1.48424   1.49239   1.50126   1.50896
 Alpha virt. eigenvalues --    1.51790   1.52256   1.53353   1.53685   1.54314
 Alpha virt. eigenvalues --    1.55493   1.55530   1.55889   1.57429   1.57986
 Alpha virt. eigenvalues --    1.58574   1.58910   1.59716   1.60739   1.61539
 Alpha virt. eigenvalues --    1.62134   1.62919   1.63701   1.64229   1.64899
 Alpha virt. eigenvalues --    1.65691   1.65938   1.67597   1.68078   1.68394
 Alpha virt. eigenvalues --    1.70064   1.70933   1.71762   1.72344   1.72921
 Alpha virt. eigenvalues --    1.73306   1.73852   1.75035   1.75704   1.77080
 Alpha virt. eigenvalues --    1.78524   1.79194   1.79491   1.80096   1.80969
 Alpha virt. eigenvalues --    1.81817   1.82364   1.83744   1.84148   1.85478
 Alpha virt. eigenvalues --    1.86539   1.87829   1.88457   1.88573   1.89719
 Alpha virt. eigenvalues --    1.90639   1.91377   1.92660   1.92948   1.94435
 Alpha virt. eigenvalues --    1.95296   1.95872   1.97196   1.97632   1.98706
 Alpha virt. eigenvalues --    1.99439   2.00985   2.01462   2.03478   2.03600
 Alpha virt. eigenvalues --    2.04685   2.06440   2.07376   2.08355   2.10002
 Alpha virt. eigenvalues --    2.10818   2.12009   2.12426   2.13732   2.14127
 Alpha virt. eigenvalues --    2.14650   2.16266   2.17128   2.17818   2.18821
 Alpha virt. eigenvalues --    2.20168   2.20728   2.21176   2.22286   2.24274
 Alpha virt. eigenvalues --    2.25365   2.25887   2.28343   2.29404   2.29967
 Alpha virt. eigenvalues --    2.31162   2.31662   2.33115   2.34260   2.34782
 Alpha virt. eigenvalues --    2.35213   2.38264   2.39447   2.39748   2.40813
 Alpha virt. eigenvalues --    2.42347   2.43236   2.43824   2.44811   2.45250
 Alpha virt. eigenvalues --    2.45728   2.47668   2.47833   2.49617   2.50520
 Alpha virt. eigenvalues --    2.52257   2.53516   2.54011   2.55822   2.56109
 Alpha virt. eigenvalues --    2.57447   2.57847   2.59340   2.61673   2.62868
 Alpha virt. eigenvalues --    2.63195   2.64992   2.66098   2.67888   2.68467
 Alpha virt. eigenvalues --    2.70665   2.71813   2.72622   2.74130   2.74602
 Alpha virt. eigenvalues --    2.75266   2.77416   2.78183   2.79556   2.80186
 Alpha virt. eigenvalues --    2.81615   2.82474   2.83023   2.83574   2.85983
 Alpha virt. eigenvalues --    2.87531   2.88351   2.89748   2.92038   2.93486
 Alpha virt. eigenvalues --    2.94366   2.95309   2.97017   2.97602   2.98073
 Alpha virt. eigenvalues --    2.98811   2.99956   3.00213   3.04714   3.06691
 Alpha virt. eigenvalues --    3.09328   3.10949   3.11343   3.13739   3.14926
 Alpha virt. eigenvalues --    3.15879   3.18940   3.20605   3.21413   3.21638
 Alpha virt. eigenvalues --    3.22896   3.24117   3.26138   3.26655   3.28359
 Alpha virt. eigenvalues --    3.29573   3.33004   3.33408   3.35786   3.36452
 Alpha virt. eigenvalues --    3.40055   3.41480   3.42135   3.43058   3.43993
 Alpha virt. eigenvalues --    3.44719   3.45542   3.46551   3.47993   3.48194
 Alpha virt. eigenvalues --    3.50747   3.51997   3.52959   3.54033   3.54520
 Alpha virt. eigenvalues --    3.55641   3.56957   3.58191   3.59622   3.61704
 Alpha virt. eigenvalues --    3.64158   3.68701   3.70750   3.76331   3.79975
 Alpha virt. eigenvalues --    3.83616   3.86206   3.87316   3.89357   3.90780
 Alpha virt. eigenvalues --    3.91041   3.95244   3.98421   3.99301   4.00303
 Alpha virt. eigenvalues --    4.01336   4.04227   4.05386   4.06188   4.07090
 Alpha virt. eigenvalues --    4.09663   4.12184   4.13368   4.20796   4.21989
 Alpha virt. eigenvalues --    4.25973   4.31674   4.64727   4.68192   4.71686
 Alpha virt. eigenvalues --    4.73080   4.75111   4.76018   4.99659   5.05670
 Alpha virt. eigenvalues --    5.07262   5.18202   5.25641   5.31376   5.35436
 Alpha virt. eigenvalues --    5.39800   5.41265   6.14380   6.21463   6.31267
 Alpha virt. eigenvalues --    6.43246   6.48540   8.85216   8.98105   9.01667
 Alpha virt. eigenvalues --    9.04657   9.08920   9.13450   9.22570   9.23877
 Alpha virt. eigenvalues --    9.28005   9.30477   9.38679   9.45536   9.47629
 Alpha virt. eigenvalues --    9.49650   9.54933   9.55460   9.57447   9.63476
 Alpha virt. eigenvalues --    9.67063   9.68388   9.69115   9.70409   9.71161
 Alpha virt. eigenvalues --    9.71843   9.73104   9.73432   9.75194   9.76046
 Alpha virt. eigenvalues --    9.77206   9.78976   9.79626   9.81362   9.83019
 Alpha virt. eigenvalues --    9.86450   9.86514   9.88392   9.89854   9.94046
 Alpha virt. eigenvalues --    9.94580   9.97299  10.07667  10.09543  10.13540
 Alpha virt. eigenvalues --   10.15571  10.18907  10.22212  10.23165  10.24546
 Alpha virt. eigenvalues --   10.25054  10.27455  10.28772  10.29408  10.29612
 Alpha virt. eigenvalues --   10.30645  10.31122  10.31673  10.33090  10.34227
 Alpha virt. eigenvalues --   10.35596  10.37193  10.37757  10.39811  10.40532
 Alpha virt. eigenvalues --   10.41763  10.42830  10.44771  10.45793  10.47238
 Alpha virt. eigenvalues --   10.48337  10.49526  10.50954  10.53069  10.54176
 Alpha virt. eigenvalues --   10.55344  10.56904  10.58179  10.59590  10.64096
 Alpha virt. eigenvalues --   10.66929  10.69099  10.70293  10.74129  10.82029
 Alpha virt. eigenvalues --   18.07759  18.11601  18.19215  18.29806  18.31635
 Alpha virt. eigenvalues --   19.22099  19.25237  19.28001  19.28087  19.29264
 Alpha virt. eigenvalues --   19.30295  19.43283  19.46050  19.47695  19.48423
 Alpha virt. eigenvalues --   19.52150  19.61415  19.64176  19.66046  19.76850
 Alpha virt. eigenvalues --   24.15821  24.28890  24.37229  24.39822  24.43001
 Alpha virt. eigenvalues --   24.48116  24.51074  24.58160  24.63068  24.67472
 Alpha virt. eigenvalues --   24.75240  24.80174  24.87539  24.95114  24.99698
 Alpha virt. eigenvalues --   31.90535  31.92498  32.04647  46.78483  46.88333
 Alpha virt. eigenvalues --   46.93413  46.95476  46.96140  46.98783  46.99264
 Alpha virt. eigenvalues --   47.03485  47.04532  47.05628  47.06703  47.07290
 Alpha virt. eigenvalues --   47.08510  47.08669  47.09077  47.09496  47.10329
 Alpha virt. eigenvalues --   47.10868  47.11313  47.12619  47.12851  47.13601
 Alpha virt. eigenvalues --   47.14909  47.16017  47.17240  47.17871  47.18358
 Alpha virt. eigenvalues --   47.19507  47.19667  47.20795  47.21539  47.23190
 Alpha virt. eigenvalues --   47.23973  47.25024  47.26102  47.26149  47.27104
 Alpha virt. eigenvalues --   47.28237  47.30111  47.32205  47.33209  47.36201
 Alpha virt. eigenvalues --   47.36946  47.38656  47.41320  48.56923  48.60895
 Alpha virt. eigenvalues --   48.67595  48.78312  48.80925  53.74469  55.41263
 Alpha virt. eigenvalues --   55.42315  55.45445  55.46549  55.47417  55.51991
 Alpha virt. eigenvalues --   55.55201  55.55812  55.56222  55.58594  55.59030
 Alpha virt. eigenvalues --   55.60323  55.61702  55.62892  55.63583  55.65869
 Alpha virt. eigenvalues --   55.67815  55.68992  55.73378  62.10211  62.21741
 Alpha virt. eigenvalues --   62.27458  62.30880  62.34167  62.39436  62.41610
 Alpha virt. eigenvalues --   62.47120  62.52301  62.55343  62.62910  62.67694
 Alpha virt. eigenvalues --   62.73543  62.81081  62.85342  93.92890  93.95949
 Alpha virt. eigenvalues --   93.96301  93.97120  93.97986  93.98801  94.06016
 Alpha virt. eigenvalues --   94.07683  94.08131  94.08584  94.11692  94.20440
 Alpha virt. eigenvalues --   94.20765  94.23046  94.28123 104.99831 105.01363
 Alpha virt. eigenvalues --  105.10986 124.46006 124.50150 124.56752 124.66202
 Alpha virt. eigenvalues --  124.69045 148.80642 148.92256 148.96354 149.00464
 Alpha virt. eigenvalues --  149.03752 149.08803 149.10810 149.15176 149.20568
 Alpha virt. eigenvalues --  149.22777 149.29570 149.34413 149.38965 149.46116
 Alpha virt. eigenvalues --  149.50313 214.76117 233.48126 233.51538 233.51899
 Alpha virt. eigenvalues --  233.55794 233.57436 233.62078 233.64699 233.65190
 Alpha virt. eigenvalues --  233.65555 233.67557 233.68303 233.69697 233.70847
 Alpha virt. eigenvalues --  233.72044 233.72495 233.74562 233.75764 233.77184
 Alpha virt. eigenvalues --  233.81567 297.24054 297.28106 297.34391 297.43299
 Alpha virt. eigenvalues --  297.46009 361.72000 361.73177 361.80732 402.10273
 Alpha virt. eigenvalues --  402.21666 402.24684 402.29133 402.32307 402.37018
 Alpha virt. eigenvalues --  402.38918 402.42418 402.47954 402.49458 402.55334
 Alpha virt. eigenvalues --  402.60143 402.63642 402.70159 402.74306 722.83874
 Alpha virt. eigenvalues --  789.08420 789.11076 789.16949 789.21081 789.22687
 Alpha virt. eigenvalues --  789.27283 789.29129 789.29618 789.30505 789.31830
 Alpha virt. eigenvalues --  789.32850 789.34355 789.35246 789.36465 789.36787
 Alpha virt. eigenvalues --  789.38688 789.39466 789.40907 789.45495 794.01287
 Alpha virt. eigenvalues --  794.05162 794.11152 794.19379 794.219671496.61320
 Alpha virt. eigenvalues -- 1496.715771496.737671496.782131496.811321496.85589
 Alpha virt. eigenvalues -- 1496.871801496.897331496.951931496.960561497.01075
 Alpha virt. eigenvalues -- 1497.055221497.080671497.139061497.178101545.37033
 Alpha virt. eigenvalues -- 1545.378451545.431742388.738432505.010932505.02607
 Alpha virt. eigenvalues -- 2505.178682505.223202505.240532505.285542505.29446
 Alpha virt. eigenvalues -- 2505.300842505.316432505.320642505.334112505.35112
 Alpha virt. eigenvalues -- 2505.357412505.369222505.373212505.385442505.39565
 Alpha virt. eigenvalues -- 2505.407422505.456752893.328082893.363572893.41676
 Alpha virt. eigenvalues -- 2893.490382893.517037970.704937970.788507970.80465
 Alpha virt. eigenvalues -- 7970.846447970.871097970.914537970.925807970.94153
 Alpha virt. eigenvalues -- 7970.991207970.996207971.038007971.075677971.09298
 Alpha virt. eigenvalues -- 7971.144227971.179058145.650948145.655078145.93944
 Alpha virt. eigenvalues -- 8145.995128146.012648146.047458146.054698146.06658
 Alpha virt. eigenvalues -- 8146.079748146.089868146.100448146.116918146.12085
 Alpha virt. eigenvalues -- 8146.130028146.136348146.141158146.160138146.16367
 Alpha virt. eigenvalues -- 8146.220798466.18545******************************
 Alpha virt. eigenvalues -- **************************************************
 Alpha virt. eigenvalues -- **************************************************
 Alpha virt. eigenvalues -- **************************************************
 Alpha virt. eigenvalues -- **************************************************
 Alpha virt. eigenvalues -- **************************************************
 Alpha virt. eigenvalues -- **************************************************
 Alpha virt. eigenvalues -- **************************************************
 Alpha virt. eigenvalues -- **************************************************
 Alpha virt. eigenvalues -- **************************************************
 Alpha virt. eigenvalues -- **********
          Condensed to atoms (all electrons):
 Mulliken charges:
               1
     1  C    0.000074
     2  C   -0.078675
     3  C    0.113562
     4  C   -0.208638
     5  C   -0.207201
     6  C   -0.149339
     7  C    0.041419
     8  C   -0.248161
     9  C    0.064236
    10  C    0.020074
    11  O   -0.321626
    12  C    0.457938
    13  C   -0.185831
    14  O   -0.343958
    15  Cl  -0.089622
    16  O   -0.405468
    17  H    0.155550
    18  C   -0.242405
    19  O   -0.399139
    20  C   -0.293828
    21  O   -0.355623
    22  C   -0.161680
    23  H    0.145163
    24  H    0.182921
    25  H    0.141041
    26  H    0.123208
    27  H    0.143687
    28  H    0.137506
    29  H    0.218938
    30  H    0.150715
    31  H    0.123054
    32  H    0.135682
    33  H    0.160274
    34  H    0.245977
    35  H    0.142709
    36  H    0.132839
    37  H    0.125725
    38  H    0.125710
    39  H    0.144263
    40  H    0.258927
 Sum of Mulliken charges =   0.00000
 Mulliken charges with hydrogens summed into heavy atoms:
               1
     1  C    0.000074
     2  C    0.076876
     3  C    0.258725
     4  C   -0.025717
     5  C    0.057048
     6  C    0.131854
     7  C    0.041419
     8  C   -0.029223
     9  C    0.214950
    10  C    0.020074
    11  O   -0.321626
    12  C    0.457938
    13  C   -0.185831
    14  O   -0.343958
    15  Cl  -0.089622
    16  O   -0.146540
    18  C    0.176605
    19  O   -0.153162
    20  C    0.107446
    21  O   -0.355623
    22  C    0.108293
 Electronic spatial extent (au):  <R**2>=           5741.7014
 Charge=              0.0000 electrons
 Dipole moment (field-independent basis, Debye):
    X=             -3.2847    Y=             -1.8181    Z=              0.9275  Tot=              3.8672
 1\1\GINC-NODE46-019\SP\RwB97XD\Gen\C15H19Cl1O5\WG12385\17-Sep-2019\0\\
 #T nmr(giao,spinspin,mixed)wb97xd/6-311g(d,p) maxdisk=50GB\\quaianolid
 e_revised_3 NMR\\0,1\C,0,-1.177988,-0.371474,0.470709\C,0,-0.168911,0.
 662815,-0.117564\C,0,1.252234,0.408873,0.324606\C,0,1.832442,-0.93158,
 -0.136898\C,0,1.407179,-2.092826,0.744577\C,0,0.017363,-2.670149,0.445
 869\C,0,-1.110746,-1.79996,-0.150635\C,0,-2.532545,0.382659,0.325501\C
 ,0,-2.17406,1.828275,0.551395\C,0,-0.753839,2.018662,0.255095\O,0,2.12
 9574,1.408668,-0.229606\C,0,3.371819,0.885797,-0.415867\C,0,3.289926,-
 0.586524,-0.198064\O,0,-1.250133,2.03524,1.620689\Cl,0,-3.262385,0.349
 92,-1.340626\O,0,-0.996288,-0.573662,1.858988\H,0,-0.203695,0.581616,-
 1.208164\C,0,-0.183599,3.309013,-0.240322\O,0,-0.848563,-1.72341,-1.54
 669\C,0,-2.414082,-2.560667,0.108402\O,0,4.314051,1.557855,-0.709211\C
 ,0,4.376771,-1.339004,-0.088318\H,0,1.325875,0.481774,1.414556\H,0,1.4
 86736,-1.106867,-1.163747\H,0,1.45627,-1.770456,1.787414\H,0,2.128677,
 -2.907688,0.640521\H,0,0.113971,-3.480372,-0.281928\H,0,-0.359068,-3.1
 1793,1.366009\H,0,-3.286877,-0.02921,0.990955\H,0,-2.923279,2.599634,0
 .416491\H,0,-0.812508,4.140543,0.079355\H,0,-0.134269,3.300521,-1.3309
 04\H,0,0.827789,3.45666,0.13479\H,0,-1.616478,-1.330397,-1.97063\H,0,-
 2.658092,-2.54024,1.171964\H,0,-2.286884,-3.599976,-0.198937\H,0,-3.25
 2332,-2.147592,-0.453308\H,0,4.327549,-2.407311,0.084576\H,0,5.354539,
 -0.879518,-0.174104\H,0,-1.008302,0.307157,2.261453\\Version=ES64L-G09
 RevD.01\State=1-A\HF=-1419.3542833\RMSD=6.811e-09\Dipole=-1.2922886,-0
 .7153033,0.364903\Quadrupole=-3.8177871,3.9802139,-0.1624268,-10.40736
 8,2.6751658,-0.5470975\PG=C01 [X(C15H19Cl1O5)]\\@


 COMMON SENSE IS NOT SO COMMON.   -- VOLTAIRE
 Job cpu time:       0 days 19 hours 49 minutes 15.7 seconds.
 File lengths (MBytes):  RWF=   1584 Int=      0 D2E=      0 Chk=     39 Scr=      1
 Normal termination of Gaussian 09 at Tue Sep 17 21:06:04 2019.
 Link1:  Proceeding to internal job step number  2.
 ----------------------------------------------------------------------
 #T Geom=AllCheck Guess=TCheck SCRF=Check GenChk RwB97XD/ChkBas NMR=Rea
 dFC IOp(3/6=22)
 ----------------------------------------------------------------------
 Structure from the checkpoint file:  "quaianolide_revised_3_NMR.chk"
 -------------------------
 quaianolide_revised_3 NMR
 -------------------------
 Charge =  0 Multiplicity = 1
 Z-Matrix found in file.
 C,0,-1.177988,-0.371474,0.470709
 C,0,-0.168911,0.662815,-0.117564
 C,0,1.252234,0.408873,0.324606
 C,0,1.832442,-0.93158,-0.136898
 C,0,1.407179,-2.092826,0.744577
 C,0,0.017363,-2.670149,0.445869
 C,0,-1.110746,-1.79996,-0.150635
 C,0,-2.532545,0.382659,0.325501
 C,0,-2.17406,1.828275,0.551395
 C,0,-0.753839,2.018662,0.255095
 O,0,2.129574,1.408668,-0.229606
 C,0,3.371819,0.885797,-0.415867
 C,0,3.289926,-0.586524,-0.198064
 O,0,-1.250133,2.03524,1.620689
 Cl,0,-3.262385,0.34992,-1.340626
 O,0,-0.996288,-0.573662,1.858988
 H,0,-0.203695,0.581616,-1.208164
 C,0,-0.183599,3.309013,-0.240322
 O,0,-0.848563,-1.72341,-1.54669
 C,0,-2.414082,-2.560667,0.108402
 O,0,4.314051,1.557855,-0.709211
 C,0,4.376771,-1.339004,-0.088318
 H,0,1.325875,0.481774,1.414556
 H,0,1.486736,-1.106867,-1.163747
 H,0,1.45627,-1.770456,1.787414
 H,0,2.128677,-2.907688,0.640521
 H,0,0.113971,-3.480372,-0.281928
 H,0,-0.359068,-3.11793,1.366009
 H,0,-3.286877,-0.02921,0.990955
 H,0,-2.923279,2.599634,0.416491
 H,0,-0.812508,4.140543,0.079355
 H,0,-0.134269,3.300521,-1.330904
 H,0,0.827789,3.45666,0.13479
 H,0,-1.616478,-1.330397,-1.97063
 H,0,-2.658092,-2.54024,1.171964
 H,0,-2.286884,-3.599976,-0.198937
 H,0,-3.252332,-2.147592,-0.453308
 H,0,4.327549,-2.407311,0.084576
 H,0,5.354539,-0.879518,-0.174104
 H,0,-1.008302,0.307157,2.261453
 Recover connectivity data from disk.
                    Distance matrix (angstroms):
                    1          2          3          4          5
     1  C    0.000000
     2  C    1.560146   0.000000
     3  C    2.556612   1.509852   0.000000
     4  C    3.121793   2.558883   1.531810   0.000000
     5  C    3.117875   3.289514   2.541433   1.518664   0.000000
     6  C    2.591021   3.385381   3.319637   2.580068   1.534313
     7  C    1.559218   2.636931   3.269323   3.068652   2.688331
     8  C    1.557121   2.421066   3.784870   4.581937   4.671732
     9  C    2.416105   2.413799   3.715592   4.913513   5.313909
    10  C    2.437035   1.522937   2.573049   3.942897   4.670538
    11  O    3.820905   2.419067   1.440995   2.360856   3.705583
    12  C    4.802863   3.560263   2.295299   2.397992   3.752151
    13  C    4.522804   3.678435   2.327270   1.499021   2.588871
    14  O    2.668320   2.464572   3.253727   4.625300   4.986964
    15  Cl   2.854129   3.341162   4.812303   5.389663   5.667443
    16  O    1.414643   2.473901   2.894055   3.480428   3.053920
    17  H    2.162462   1.094172   2.121074   2.753766   3.682493
    18  C    3.878190   2.649085   3.285053   4.696568   5.716683
    19  O    2.450745   2.863284   3.530117   3.130862   3.236471
    20  C    2.540032   3.934805   4.723006   4.554894   3.902003
    21  O    5.939446   4.609565   3.429819   3.561350   4.887829
    22  C    5.666037   4.967027   3.603930   2.577201   3.174971
    23  H    2.808596   2.148151   1.094865   2.158979   2.661587
    24  H    3.211387   2.639591   2.137207   1.097569   2.149452
    25  H    3.260395   3.491556   2.632663   2.132650   1.092630
    26  H    4.170761   4.313015   3.444928   2.144094   1.093338
    27  H    3.449763   4.156084   4.097530   3.077421   2.156707
    28  H    3.002534   4.065856   4.014867   3.441159   2.134630
    29  H    2.198912   3.380743   4.608630   5.319187   5.133554
    30  H    3.446224   3.409256   4.716226   5.949167   6.393723
    31  H    4.543680   3.542257   4.271846   5.724418   6.650144
    32  H    4.221221   2.903599   3.608979   4.817082   5.980959
    33  H    4.334812   2.977023   3.083049   4.509966   5.612872
    34  H    2.659312   3.082564   4.064810   3.926408   4.134749
    35  H    2.717722   4.256579   4.970506   4.946292   4.112088
    36  H    3.478692   4.760653   5.373111   4.908465   4.099734
    37  H    2.882934   4.185522   5.237536   5.237722   4.811338
    38  H    5.882573   5.448366   4.176849   2.907300   3.010492
    39  H    6.583905   5.735023   4.328691   3.522678   4.230572
    40  H    1.922524   2.547703   2.978548   3.918722   3.727651
                    6          7          8          9         10
     6  C    0.000000
     7  C    1.544563   0.000000
     8  C    3.979467   2.648026   0.000000
     9  C    5.004926   3.845461   1.506435   0.000000
    10  C    4.755638   3.856666   2.417697   1.463239   0.000000
    11  O    4.642677   4.560834   4.805850   4.394007   2.986821
    12  C    4.963841   5.232306   5.971959   5.707945   4.330661
    13  C    3.932660   4.565150   5.925758   6.020638   4.831602
    14  O    5.012727   4.226793   2.460308   1.428239   1.453076
    15  Cl   4.803033   3.266131   1.819263   2.636234   3.409374
    16  O    2.723904   2.357009   2.371965   2.977625   3.058006
    17  H    3.654951   2.759169   2.795578   2.921052   2.123414
    18  C    6.021762   5.193193   3.794898   2.604100   1.495198
    19  O    2.369902   1.422522   3.282746   4.332825   4.154336
    20  C    2.457193   1.531163   2.953698   4.417767   4.873210
    21  O    6.137732   6.404323   7.023360   6.614971   5.179357
    22  C    4.589307   5.507196   7.132602   7.304401   6.141255
    23  H    3.547559   3.686903   4.010395   3.848072   2.834005
    24  H    2.682121   2.872923   4.537749   4.995818   4.099051
    25  H    2.163248   3.216594   4.762745   5.259078   4.646504
[...]
     23 -0.389362D+00  0.103905D+02 -0.514054D-01 -0.378793D+00  0.498233D-01
     24 -0.996742D-01  0.391477D+00 -0.541911D-02  0.116177D+00  0.728164D-01
     25 -0.586047D+00 -0.111613D+00 -0.189154D-01 -0.435212D+00 -0.292292D+00
     26 -0.387314D+00 -0.116587D-02 -0.374581D-01  0.736230D-01 -0.196965D+00
     27 -0.169550D+01  0.208113D+00 -0.344392D-01 -0.579271D+01  0.120612D+01
     28 -0.112480D+01 -0.138435D+00 -0.314562D-01 -0.941848D+01  0.457292D+01
     29 -0.146918D+01 -0.572471D+00  0.211047D+00  0.301201D-01  0.237106D+00
     30 -0.568335D-01 -0.253909D+00  0.156651D+01  0.457499D-01  0.242673D-01
     31  0.786411D-02 -0.732776D-01  0.117749D+03  0.174577D-01  0.117909D-02
     32 -0.219134D-01  0.625933D+00  0.115466D+03  0.668948D-02 -0.369943D-01
     33  0.353244D-01 -0.182073D+00  0.124323D+03  0.164656D-01 -0.388177D-01
     34  0.330975D+00  0.619710D+00 -0.991655D-02 -0.727833D+02  0.131971D+01
     35 -0.484453D+00 -0.425707D-01 -0.238278D-01 -0.308237D+01  0.116054D+03
     36  0.160669D+00  0.830193D-01  0.831252D-01 -0.356719D+00  0.118886D+03
     37 -0.102618D+00 -0.185645D-01 -0.431904D-01 -0.114257D+01  0.116165D+03
     38  0.330631D-02 -0.706973D-01  0.299860D-02  0.870074D-01 -0.460294D-02
     39  0.125817D-01 -0.951707D-01 -0.153004D-01  0.784222D-01 -0.233168D-01
     40 -0.749398D+02 -0.567273D+00 -0.121994D+00 -0.283831D+00 -0.357646D+00
               21            22            23            24            25 
     21  0.000000D+00
     22 -0.219490D+01  0.000000D+00
     23 -0.347433D-01 -0.114147D+00  0.000000D+00
     24  0.471042D+00  0.464438D+01  0.885971D+01  0.000000D+00
     25  0.988317D-01 -0.144381D+00  0.271013D+00  0.995919D+01  0.000000D+00
     26 -0.403791D-01  0.408253D-01 -0.284709D+00  0.133962D+01 -0.138818D+02
     27  0.444373D-01 -0.823852D-02 -0.217098D-01  0.465855D-01  0.945682D+01
     28  0.213013D-01 -0.702569D-01  0.355380D-01 -0.264042D+00  0.894730D+01
     29  0.234595D-01 -0.327163D-01 -0.489902D-01 -0.124094D+00 -0.146554D-01
     30  0.328225D-01 -0.204035D-01 -0.223919D-01 -0.154100D+00 -0.121595D+00
     31  0.459195D-01 -0.446349D-01 -0.532513D-01 -0.104058D+00 -0.930483D-01
     32  0.455896D-01 -0.362192D-01 -0.101927D+00  0.666761D-01 -0.881251D-01
     33  0.105272D+00 -0.420040D-01  0.212542D+00 -0.240947D-01 -0.219631D-01
     34  0.269867D-01 -0.247914D-01 -0.161284D+00 -0.193903D-01 -0.180342D+00
     35  0.317542D-01 -0.272138D-01 -0.276308D-01 -0.104954D+00  0.148896D+00
     36  0.255676D-01 -0.296664D-01 -0.110127D+00  0.141087D-01 -0.772482D-01
     37  0.275988D-01 -0.118480D-01 -0.120168D+00 -0.287419D-01 -0.275175D+00
     38  0.270414D+00  0.148580D+03 -0.864117D-01 -0.403169D+01  0.903367D-01
     39  0.348857D+00  0.154738D+03 -0.124732D+00 -0.447434D+01 -0.859770D-01
     40  0.438344D-01 -0.205771D-01  0.503204D+00 -0.157382D+00  0.652222D-01
               26            27            28            29            30 
     26  0.000000D+00
     27  0.987504D+01  0.000000D+00
     28  0.675889D+00 -0.143906D+02  0.000000D+00
     29 -0.986199D-01 -0.115938D+00  0.818179D-01  0.000000D+00
     30 -0.136680D+00 -0.701270D-01 -0.190026D+00  0.124785D+01  0.000000D+00
     31 -0.135544D+00 -0.128086D+00 -0.130047D+00  0.485669D-01  0.244975D+00
     32 -0.103100D+00 -0.967813D-01 -0.126854D+00 -0.764703D-01 -0.711060D-01
     33 -0.102833D+00 -0.117577D+00 -0.109421D+00  0.101208D+01 -0.829907D+00
     34 -0.490226D-01  0.606120D+00  0.239643D+01 -0.962360D-01 -0.294496D+00
     35  0.989831D-02  0.200176D-01  0.672320D+00  0.665161D+00 -0.117213D+00
     36 -0.286430D-01  0.389609D+00  0.315186D+00  0.246799D+00 -0.232284D+00
     37  0.175020D+00 -0.492369D+00  0.170436D+01  0.832460D+00 -0.228687D+00
     38  0.262666D+00  0.101245D+00  0.470435D-01 -0.796171D-01 -0.114602D+00
     39 -0.173719D+00 -0.782066D-01 -0.103392D+00 -0.107206D+00 -0.106088D+00
     40 -0.226430D+00  0.329829D-01  0.298863D+00  0.141535D+00 -0.195870D+00
               31            32            33            34            35 
     31  0.000000D+00
     32 -0.130277D+02  0.000000D+00
     33 -0.122385D+02 -0.149897D+02  0.000000D+00
     34 -0.113692D+00  0.590172D-01 -0.843067D-01  0.000000D+00
     35 -0.122268D+00 -0.133300D+00 -0.114597D+00 -0.802924D+00  0.000000D+00
     36 -0.124143D+00 -0.131584D+00 -0.141068D+00 -0.178879D+00 -0.131143D+02
     37 -0.169057D+00 -0.153801D+00 -0.147605D+00  0.469142D+00 -0.120944D+02
     38 -0.901836D-01 -0.911592D-01 -0.889265D-01 -0.101157D+00 -0.370225D-01
     39 -0.821022D-01 -0.767751D-01 -0.622443D-01 -0.121512D+00 -0.911866D-01
     40  0.578173D-02 -0.112780D+00  0.469255D-01 -0.368725D+00 -0.338137D-01
               36            37            38            39            40 
     36  0.000000D+00
     37 -0.123688D+02  0.000000D+00
     38 -0.336543D-02 -0.619786D-01  0.000000D+00
     39 -0.785622D-01 -0.992077D-01 -0.362749D+00  0.000000D+00
     40 -0.263461D+00 -0.522671D-01 -0.770258D-01 -0.902129D-01  0.000000D+00
 End of Minotr F.D. properties file   721 does not exist.
 End of Minotr F.D. properties file   722 does not exist.
 End of Minotr F.D. properties file   788 does not exist.

 **********************************************************************

            Population analysis using the SCF density.

 **********************************************************************

 Orbital symmetries:
       Occupied  (A) (A) (A) (A) (A) (A) (A) (A) (A) (A) (A) (A)
                 (A) (A) (A) (A) (A) (A) (A) (A) (A) (A) (A) (A)
                 (A) (A) (A) (A) (A) (A) (A) (A) (A) (A) (A) (A)
                 (A) (A) (A) (A) (A) (A) (A) (A) (A) (A) (A) (A)
                 (A) (A) (A) (A) (A) (A) (A) (A) (A) (A) (A) (A)
                 (A) (A) (A) (A) (A) (A) (A) (A) (A) (A) (A) (A)
                 (A) (A) (A) (A) (A) (A) (A) (A) (A) (A) (A)
       Virtual   (A) (A) (A) (A) (A) (A) (A) (A) (A) (A) (A) (A)
                 (A) (A) (A) (A) (A) (A) (A) (A) (A) (A) (A) (A)
                 (A) (A) (A) (A) (A) (A) (A) (A) (A) (A) (A) (A)
                 (A) (A) (A) (A) (A) (A) (A) (A) (A) (A) (A) (A)
                 (A) (A) (A) (A) (A) (A) (A) (A) (A) (A) (A) (A)
                 (A) (A) (A) (A) (A) (A) (A) (A) (A) (A) (A) (A)
                 (A) (A) (A) (A) (A) (A) (A) (A) (A) (A) (A) (A)
                 (A) (A) (A) (A) (A) (A) (A) (A) (A) (A) (A) (A)
                 (A) (A) (A) (A) (A) (A) (A) (A) (A) (A) (A) (A)
                 (A) (A) (A) (A) (A) (A) (A) (A) (A) (A) (A) (A)
                 (A) (A) (A) (A) (A) (A) (A) (A) (A) (A) (A) (A)
                 (A) (A) (A) (A) (A) (A) (A) (A) (A) (A) (A) (A)
                 (A) (A) (A) (A) (A) (A) (A) (A) (A) (A) (A) (A)
                 (A) (A) (A) (A) (A) (A) (A) (A) (A) (A) (A) (A)
                 (A) (A) (A) (A) (A) (A) (A) (A) (A) (A) (A) (A)
                 (A) (A) (A) (A) (A) (A) (A) (A) (A) (A) (A) (A)
                 (A) (A) (A) (A) (A) (A) (A) (A) (A) (A) (A) (A)
                 (A) (A) (A) (A) (A) (A) (A) (A) (A) (A) (A) (A)
                 (A) (A) (A) (A) (A) (A) (A) (A) (A) (A) (A) (A)
                 (A) (A) (A) (A) (A) (A) (A) (A) (A) (A) (A) (A)
                 (A) (A) (A) (A) (A) (A) (A) (A) (A) (A) (A) (A)
                 (A) (A) (A) (A) (A) (A) (A) (A) (A) (A) (A) (A)
                 (A) (A) (A) (A) (A) (A) (A) (A) (A) (A) (A) (A)
                 (A) (A) (A) (A) (A) (A) (A) (A) (A) (A) (A) (A)
                 (A) (A) (A) (A) (A) (A) (A) (A) (A) (A) (A) (A)
                 (A) (A) (A) (A) (A) (A) (A) (A) (A) (A) (A) (A)
                 (A) (A) (A) (A) (A) (A) (A) (A) (A) (A) (A) (A)
                 (A) (A) (A) (A) (A) (A) (A) (A) (A) (A) (A) (A)
                 (A) (A) (A) (A) (A) (A) (A) (A) (A) (A) (A) (A)
                 (A) (A) (A) (A) (A) (A) (A) (A) (A) (A) (A) (A)
                 (A) (A) (A) (A) (A) (A) (A) (A) (A) (A) (A) (A)
                 (A) (A) (A) (A) (A) (A) (A) (A) (A) (A) (A) (A)
                 (A) (A) (A) (A) (A) (A) (A) (A) (A) (A) (A) (A)
                 (A) (A) (A) (A) (A) (A) (A) (A) (A) (A) (A) (A)
                 (A) (A) (A) (A) (A) (A) (A) (A) (A)
 The electronic state is 1-A.
 Alpha  occ. eigenvalues -- -101.74007 -19.29082 -19.29039 -19.25807 -19.25192
 Alpha  occ. eigenvalues --  -19.22791 -10.41165 -10.37591 -10.37552 -10.37104
 Alpha  occ. eigenvalues --  -10.36799 -10.36121 -10.35910 -10.31488 -10.31047
 Alpha  occ. eigenvalues --  -10.30611 -10.30034 -10.29132 -10.28832 -10.28640
 Alpha  occ. eigenvalues --  -10.28032  -9.60892  -7.35757  -7.34867  -7.34822
 Alpha  occ. eigenvalues --   -1.22052  -1.21436  -1.15580  -1.13924  -1.13273
 Alpha  occ. eigenvalues --   -0.99547  -0.95314  -0.92639  -0.90255  -0.87632
 Alpha  occ. eigenvalues --   -0.86068  -0.84318  -0.80896  -0.78355  -0.76402
 Alpha  occ. eigenvalues --   -0.75501  -0.72504  -0.69180  -0.68383  -0.66100
 Alpha  occ. eigenvalues --   -0.64984  -0.63920  -0.61416  -0.60386  -0.58749
 Alpha  occ. eigenvalues --   -0.57715  -0.57555  -0.56422  -0.55982  -0.54332
 Alpha  occ. eigenvalues --   -0.54205  -0.53136  -0.52970  -0.51769  -0.51556
 Alpha  occ. eigenvalues --   -0.51098  -0.49863  -0.49201  -0.48914  -0.48749
 Alpha  occ. eigenvalues --   -0.47462  -0.46730  -0.46014  -0.45579  -0.45459
 Alpha  occ. eigenvalues --   -0.43801  -0.43733  -0.43181  -0.42079  -0.41105
 Alpha  occ. eigenvalues --   -0.40800  -0.39679  -0.38868  -0.38249  -0.36894
 Alpha  occ. eigenvalues --   -0.36398  -0.35814  -0.35259
 Alpha virt. eigenvalues --    0.02138   0.06047   0.11233   0.12061   0.12976
 Alpha virt. eigenvalues --    0.13438   0.13504   0.14540   0.14799   0.15517
 Alpha virt. eigenvalues --    0.16240   0.16647   0.17062   0.17808   0.17945
 Alpha virt. eigenvalues --    0.18297   0.18753   0.19092   0.19473   0.20500
 Alpha virt. eigenvalues --    0.21029   0.21571   0.22487   0.22791   0.23310
 Alpha virt. eigenvalues --    0.24684   0.25691   0.26191   0.26798   0.27127
 Alpha virt. eigenvalues --    0.28781   0.29868   0.30014   0.30720   0.31654
 Alpha virt. eigenvalues --    0.33380   0.33808   0.34186   0.34562   0.34852
 Alpha virt. eigenvalues --    0.36052   0.36832   0.37362   0.38052   0.38483
 Alpha virt. eigenvalues --    0.39019   0.39551   0.40292   0.41596   0.41897
 Alpha virt. eigenvalues --    0.42793   0.44187   0.44536   0.45532   0.45834
 Alpha virt. eigenvalues --    0.46265   0.47360   0.48309   0.48989   0.50745
 Alpha virt. eigenvalues --    0.51156   0.51809   0.52470   0.53195   0.53271
 Alpha virt. eigenvalues --    0.53873   0.54879   0.55837   0.56242   0.57159
 Alpha virt. eigenvalues --    0.57236   0.58961   0.59955   0.60853   0.61102
 Alpha virt. eigenvalues --    0.62298   0.62905   0.63257   0.63828   0.64458
 Alpha virt. eigenvalues --    0.65101   0.65349   0.65809   0.66059   0.66530
 Alpha virt. eigenvalues --    0.67338   0.67673   0.67882   0.68167   0.68630
 Alpha virt. eigenvalues --    0.68864   0.69825   0.70113   0.71238   0.71324
 Alpha virt. eigenvalues --    0.72159   0.72439   0.72831   0.72925   0.74475
 Alpha virt. eigenvalues --    0.75550   0.76037   0.77217   0.79065   0.79273
 Alpha virt. eigenvalues --    0.80010   0.81614   0.83097   0.84092   0.84384
 Alpha virt. eigenvalues --    0.86117   0.87815   0.89396   0.90038   0.91060
 Alpha virt. eigenvalues --    0.91668   0.92944   0.93639   0.95831   0.96721
 Alpha virt. eigenvalues --    0.97405   0.98586   0.99110   1.00954   1.01709
 Alpha virt. eigenvalues --    1.02280   1.02892   1.03016   1.04574   1.06181
 Alpha virt. eigenvalues --    1.07193   1.08585   1.09134   1.10282   1.11601
 Alpha virt. eigenvalues --    1.12278   1.12842   1.14595   1.15097   1.16245
 Alpha virt. eigenvalues --    1.17254   1.18513   1.20203   1.22357   1.22607
 Alpha virt. eigenvalues --    1.23650   1.25689   1.27448   1.28729   1.30305
 Alpha virt. eigenvalues --    1.31707   1.33629   1.35314   1.36131   1.36328
 Alpha virt. eigenvalues --    1.38552   1.39299   1.41016   1.42281   1.42905
 Alpha virt. eigenvalues --    1.43548   1.43895   1.45380   1.47813   1.48016
 Alpha virt. eigenvalues --    1.49155   1.50924   1.51385   1.52617   1.53164
 Alpha virt. eigenvalues --    1.53999   1.54543   1.55510   1.56626   1.57656
 Alpha virt. eigenvalues --    1.58236   1.58341   1.59598   1.59765   1.60562
 Alpha virt. eigenvalues --    1.61125   1.61630   1.62857   1.63007   1.64223
 Alpha virt. eigenvalues --    1.65231   1.65742   1.66550   1.66972   1.68190
 Alpha virt. eigenvalues --    1.69367   1.69479   1.70500   1.70755   1.71848
 Alpha virt. eigenvalues --    1.73733   1.74334   1.74720   1.74971   1.76104
 Alpha virt. eigenvalues --    1.76578   1.77369   1.79566   1.80453   1.81296
 Alpha virt. eigenvalues --    1.81737   1.82375   1.83078   1.83561   1.85361
 Alpha virt. eigenvalues --    1.86104   1.86380   1.87376   1.87938   1.90543
 Alpha virt. eigenvalues --    1.91090   1.92803   1.93544   1.94272   1.94959
 Alpha virt. eigenvalues --    1.96078   1.96627   1.98335   1.98987   1.99862
 Alpha virt. eigenvalues --    2.00324   2.01991   2.03662   2.04384   2.05338
 Alpha virt. eigenvalues --    2.06476   2.07369   2.10068   2.10368   2.11165
 Alpha virt. eigenvalues --    2.12000   2.14152   2.14313   2.14919   2.15936
 Alpha virt. eigenvalues --    2.18108   2.18515   2.19970   2.21375   2.21613
 Alpha virt. eigenvalues --    2.22652   2.23796   2.26330   2.26855   2.27479
 Alpha virt. eigenvalues --    2.29489   2.29721   2.30054   2.32337   2.32930
 Alpha virt. eigenvalues --    2.33505   2.35042   2.36922   2.38679   2.40584
 Alpha virt. eigenvalues --    2.42563   2.43269   2.44348   2.45196   2.47420
 Alpha virt. eigenvalues --    2.48000   2.48281   2.50466   2.51251   2.53096
 Alpha virt. eigenvalues --    2.54645   2.54863   2.55926   2.57090   2.59379
 Alpha virt. eigenvalues --    2.60295   2.61102   2.61284   2.62512   2.63433
 Alpha virt. eigenvalues --    2.64356   2.64652   2.65225   2.66601   2.67905
 Alpha virt. eigenvalues --    2.68674   2.69532   2.72027   2.72576   2.75276
 Alpha virt. eigenvalues --    2.75745   2.76647   2.77979   2.78869   2.79559
 Alpha virt. eigenvalues --    2.81373   2.83041   2.84150   2.84460   2.88222
 Alpha virt. eigenvalues --    2.90005   2.92566   2.92855   2.94101   2.95473
 Alpha virt. eigenvalues --    2.96438   2.97499   2.98405   2.98640   2.99911
 Alpha virt. eigenvalues --    3.02416   3.03417   3.04585   3.05677   3.06239
 Alpha virt. eigenvalues --    3.08371   3.09626   3.11360   3.14207   3.14916
 Alpha virt. eigenvalues --    3.15286   3.16224   3.18652   3.18967   3.22228
 Alpha virt. eigenvalues --    3.23381   3.24251   3.25816   3.27487   3.28819
 Alpha virt. eigenvalues --    3.29791   3.30391   3.32023   3.33331   3.35457
 Alpha virt. eigenvalues --    3.37443   3.43207   3.44321   3.45532   3.46577
 Alpha virt. eigenvalues --    3.48286   3.49674   3.54169   3.57289   3.61266
 Alpha virt. eigenvalues --    3.65778   3.67042   3.70068   3.73791   3.74754
 Alpha virt. eigenvalues --    3.77635   3.81979   3.84544   3.89206   3.89971
 Alpha virt. eigenvalues --    3.90277   3.93032   3.94033   3.94828   4.00317
 Alpha virt. eigenvalues --    4.03131   4.04448   4.06961   4.09298   4.10947
 Alpha virt. eigenvalues --    4.13675   4.16991   4.17468   4.22736   4.30134
 Alpha virt. eigenvalues --    4.34052   4.39086   4.39848   4.43861   4.49066
 Alpha virt. eigenvalues --    4.59869   4.62594   5.03607   5.06979   5.09994
 Alpha virt. eigenvalues --    5.10503   5.13558   5.14522   5.41274   5.44914
 Alpha virt. eigenvalues --    5.47553   5.51090   5.59690   5.69498   5.75469
 Alpha virt. eigenvalues --    5.81085   5.93724   9.74213  23.75529  23.80038
 Alpha virt. eigenvalues --   23.86649  23.88849  23.94543  23.96861  23.97812
 Alpha virt. eigenvalues --   23.98043  24.01340  24.02391  24.06883  24.08305
 Alpha virt. eigenvalues --   24.08621  24.10406  24.39510  25.75323  25.85116
 Alpha virt. eigenvalues --   26.43194  50.01842  50.04562  50.08909  50.12545
 Alpha virt. eigenvalues --   50.16655 215.78937
          Condensed to atoms (all electrons):
 Mulliken charges:
               1
     1  C   -0.024256
     2  C   -0.089192
     3  C    0.102751
     4  C   -0.195731
     5  C   -0.208159
     6  C   -0.141589
     7  C    0.000644
     8  C   -0.243328
     9  C    0.075898
    10  C   -0.022846
    11  O   -0.319028
    12  C    0.439646
    13  C   -0.239000
    14  O   -0.341212
    15  Cl  -0.084387
    16  O   -0.389948
    17  H    0.164249
    18  C   -0.213344
    19  O   -0.387960
    20  C   -0.271403
    21  O   -0.315604
    22  C   -0.145927
    23  H    0.152003
    24  H    0.187886
    25  H    0.139991
    26  H    0.126373
    27  H    0.143794
    28  H    0.138178
    29  H    0.219084
    30  H    0.156555
    31  H    0.119746
    32  H    0.131956
    33  H    0.156942
    34  H    0.249038
    35  H    0.138697
    36  H    0.132285
    37  H    0.124304
    38  H    0.126364
    39  H    0.145083
    40  H    0.261447
 Sum of Mulliken charges =   0.00000
 Mulliken charges with hydrogens summed into heavy atoms:
               1
     1  C   -0.024256
     2  C    0.075058
     3  C    0.254754
     4  C   -0.007845
     5  C    0.058204
     6  C    0.140383
     7  C    0.000644
     8  C   -0.024244
     9  C    0.232453
    10  C   -0.022846
    11  O   -0.319028
    12  C    0.439646
    13  C   -0.239000
    14  O   -0.341212
    15  Cl  -0.084387
    16  O   -0.128500
    18  C    0.195300
    19  O   -0.138922
    20  C    0.123883
    21  O   -0.315604
    22  C    0.125519
 Electronic spatial extent (au):  <R**2>=           5742.1704
 Charge=              0.0000 electrons
 Dipole moment (field-independent basis, Debye):
    X=             -3.2752    Y=             -1.8384    Z=              0.9191  Tot=              3.8667

 Test job not archived.
 1\1\GINC-NODE46-019\SP\RwB97XD\Gen\C15H19Cl1O5\WG12385\17-Sep-2019\0\\
 #T Geom=AllCheck Guess=TCheck SCRF=Check GenChk RwB97XD/ChkBas NMR=Rea
 dFC IOp(3/6=22)\\quaianolide_revised_3 NMR\\0,1\C,0,-1.177988,-0.37147
 4,0.470709\C,0,-0.168911,0.662815,-0.117564\C,0,1.252234,0.408873,0.32
 4606\C,0,1.832442,-0.93158,-0.136898\C,0,1.407179,-2.092826,0.744577\C
 ,0,0.017363,-2.670149,0.445869\C,0,-1.110746,-1.79996,-0.150635\C,0,-2
 .532545,0.382659,0.325501\C,0,-2.17406,1.828275,0.551395\C,0,-0.753839
 ,2.018662,0.255095\O,0,2.129574,1.408668,-0.229606\C,0,3.371819,0.8857
 97,-0.415867\C,0,3.289926,-0.586524,-0.198064\O,0,-1.250133,2.03524,1.
 620689\Cl,0,-3.262385,0.34992,-1.340626\O,0,-0.996288,-0.573662,1.8589
 88\H,0,-0.203695,0.581616,-1.208164\C,0,-0.183599,3.309013,-0.240322\O
 ,0,-0.848563,-1.72341,-1.54669\C,0,-2.414082,-2.560667,0.108402\O,0,4.
 314051,1.557855,-0.709211\C,0,4.376771,-1.339004,-0.088318\H,0,1.32587
 5,0.481774,1.414556\H,0,1.486736,-1.106867,-1.163747\H,0,1.45627,-1.77
 0456,1.787414\H,0,2.128677,-2.907688,0.640521\H,0,0.113971,-3.480372,-
 0.281928\H,0,-0.359068,-3.11793,1.366009\H,0,-3.286877,-0.02921,0.9909
 55\H,0,-2.923279,2.599634,0.416491\H,0,-0.812508,4.140543,0.079355\H,0
 ,-0.134269,3.300521,-1.330904\H,0,0.827789,3.45666,0.13479\H,0,-1.6164
 78,-1.330397,-1.97063\H,0,-2.658092,-2.54024,1.171964\H,0,-2.286884,-3
 .599976,-0.198937\H,0,-3.252332,-2.147592,-0.453308\H,0,4.327549,-2.40
 7311,0.084576\H,0,5.354539,-0.879518,-0.174104\H,0,-1.008302,0.307157,
 2.261453\\Version=ES64L-G09RevD.01\State=1-A\HF=-1419.2987055\RMSD=4.8
 31e-09\Dipole=-1.2885518,-0.723296,0.3615878\Quadrupole=-3.7769351,4.0
 101963,-0.2332612,-10.4265163,2.6878546,-0.5851029\PG=C01 [X(C15H19Cl1
 O5)]\\@


 ONE THORN OF EXPERIENCE IS WORTH A WHOLE WILDERNESS OF
 WARNING....  LOWELL - AMONG MY BOOKS
 Job cpu time:       0 days 12 hours 42 minutes 11.4 seconds.
 File lengths (MBytes):  RWF=   2361 Int=      0 D2E=      0 Chk=     39 Scr=      1
 Normal termination of Gaussian 09 at Tue Sep 17 22:42:21 2019.
