 Entering Gaussian System, Link 0=g09
 Input=optcom/achicretin_revised_1_OPT.com
 Output=optcom/achicretin_revised_1_OPT.log
 Initial command:
 /cm/shared/apps/Gaussian09/g09/l1.exe "/local/Gau-93888.inp" -scrdir="/local/"
 Entering Link 1 = /cm/shared/apps/Gaussian09/g09/l1.exe PID=     93889.
  
 Copyright (c) 1988,1990,1992,1993,1995,1998,2003,2009,2013,
            Gaussian, Inc.  All Rights Reserved.
  
 This is part of the Gaussian(R) 09 program.  It is based on
 the Gaussian(R) 03 system (copyright 2003, Gaussian, Inc.),
 the Gaussian(R) 98 system (copyright 1998, Gaussian, Inc.),
 the Gaussian(R) 94 system (copyright 1995, Gaussian, Inc.),
 the Gaussian 92(TM) system (copyright 1992, Gaussian, Inc.),
 the Gaussian 90(TM) system (copyright 1990, Gaussian, Inc.),
 the Gaussian 88(TM) system (copyright 1988, Gaussian, Inc.),
 the Gaussian 86(TM) system (copyright 1986, Carnegie Mellon
 University), and the Gaussian 82(TM) system (copyright 1983,
 Carnegie Mellon University). Gaussian is a federally registered
 trademark of Gaussian, Inc.
  
 This software contains proprietary and confidential information,
 including trade secrets, belonging to Gaussian, Inc.
  
 This software is provided under written license and may be
 used, copied, transmitted, or stored only in accord with that
 written license.
  
 The following legend is applicable only to US Government
 contracts under FAR:
  
                    RESTRICTED RIGHTS LEGEND
  
 Use, reproduction and disclosure by the US Government is
 subject to restrictions as set forth in subparagraphs (a)
 and (c) of the Commercial Computer Software - Restricted
 Rights clause in FAR 52.227-19.
  
 Gaussian, Inc.
 340 Quinnipiac St., Bldg. 40, Wallingford CT 06492
  
  
 ---------------------------------------------------------------
 Warning -- This program may not be used in any manner that
 competes with the business of Gaussian, Inc. or will provide
 assistance to any competitor of Gaussian, Inc.  The licensee
 of this program is prohibited from giving any competitor of
 Gaussian, Inc. access to this program.  By using this program,
 the user acknowledges that Gaussian, Inc. is engaged in the
 business of creating and licensing software in the field of
 computational chemistry and represents and warrants to the
 licensee that it is not a competitor of Gaussian, Inc. and that
 it will not use this program in any manner prohibited above.
 ---------------------------------------------------------------
  

 Cite this work as:
 Gaussian 09, Revision D.01,
 M. J. Frisch, G. W. Trucks, H. B. Schlegel, G. E. Scuseria, 
 M. A. Robb, J. R. Cheeseman, G. Scalmani, V. Barone, B. Mennucci, 
 G. A. Petersson, H. Nakatsuji, M. Caricato, X. Li, H. P. Hratchian, 
 A. F. Izmaylov, J. Bloino, G. Zheng, J. L. Sonnenberg, M. Hada, 
 M. Ehara, K. Toyota, R. Fukuda, J. Hasegawa, M. Ishida, T. Nakajima, 
 Y. Honda, O. Kitao, H. Nakai, T. Vreven, J. A. Montgomery, Jr., 
 J. E. Peralta, F. Ogliaro, M. Bearpark, J. J. Heyd, E. Brothers, 
 K. N. Kudin, V. N. Staroverov, T. Keith, R. Kobayashi, J. Normand, 
 K. Raghavachari, A. Rendell, J. C. Burant, S. S. Iyengar, J. Tomasi, 
 M. Cossi, N. Rega, J. M. Millam, M. Klene, J. E. Knox, J. B. Cross, 
 V. Bakken, C. Adamo, J. Jaramillo, R. Gomperts, R. E. Stratmann, 
 O. Yazyev, A. J. Austin, R. Cammi, C. Pomelli, J. W. Ochterski, 
 R. L. Martin, K. Morokuma, V. G. Zakrzewski, G. A. Voth, 
 P. Salvador, J. J. Dannenberg, S. Dapprich, A. D. Daniels, 
 O. Farkas, J. B. Foresman, J. V. Ortiz, J. Cioslowski, 
 and D. J. Fox, Gaussian, Inc., Wallingford CT, 2013.
 
 ******************************************
 Gaussian 09:  ES64L-G09RevD.01 24-Apr-2013
                16-Sep-2019 
 ******************************************
 %Chk=achicretin_revised_1_OPT
 %NoSave
 %mem=26GB
 %NProcShared=8
 Will use up to    8 processors via shared memory.
 ---------------------------------------------------------------------
 # opt=tight freq mpw1pw91/6-311g(d,p) integral=ultrafine MaxDisk=50GB
 ---------------------------------------------------------------------
 1/7=10,14=-1,18=20,19=15,26=4,38=1/1,3;
 2/9=110,12=2,17=6,18=5,40=1/2;
 3/5=4,6=6,7=101,11=2,16=1,25=1,30=1,71=1,74=-7,75=-5/1,2,3;
 4//1;
 5/5=2,38=5/2;
 6/7=2,8=2,9=2,10=2,28=1/1;
 7//1,2,3,16;
 1/7=10,14=-1,18=20,19=15,26=4/3(2);
 2/9=110/2;
 99//99;
 2/9=110/2;
 3/5=4,6=6,7=101,11=2,16=1,25=1,30=1,71=1,74=-7,75=-5/1,2,3;
 4/5=5,16=3,69=1/1;
 5/5=2,38=5/2;
 7//1,2,3,16;
 1/7=10,14=-1,18=20,19=15,26=4/3(-5);
 2/9=110/2;
 6/7=2,8=2,9=2,10=2,19=2,28=1/1;
 99/9=1/99;
 ------------------------
 achicretin_revised_1 OPT
 ------------------------
 Symbolic Z-matrix:
 Charge =  0 Multiplicity = 1
 C                     1.05463   0.88793   0.25147 
 C                     0.28552  -0.34755  -0.2101 
 C                    -1.13759  -0.32072   0.33892 
 C                    -2.07315   0.6282   -0.44358 
 C                    -2.03318   2.11964  -0.0503 
 C                    -0.71356   2.6721    0.53654 
 C                     0.6545    2.32407  -0.11658 
 C                     2.41811   0.48755   0.62312 
 C                     2.59402  -1.00264   0.434 
 C                     1.15566  -1.58752   0.22568 
 O                    -1.75868  -1.63295   0.23326 
 C                    -3.10523  -1.51631  -0.02055 
 C                    -3.39928  -0.08089  -0.31345 
 O                     0.78746  -2.05713   1.52044 
 O                     1.44992   0.78327   1.64656 
 C                     1.06801  -2.73743  -0.78233 
 O                     1.62736   3.20374   0.45108 
 C                     0.69761   2.58018  -1.62311 
 O                    -3.84889  -2.46285   0.00473 
 C                    -4.64805   0.37676  -0.41353 
 Cl                    3.72638  -1.23409  -0.9782 
 H                     0.24237  -0.3378   -1.30701 
 H                    -1.11176  -0.07503   1.40588 
 H                    -1.77359   0.5415   -1.49945 
 H                    -2.81481   2.30684   0.69623 
 H                    -2.31319   2.70734  -0.93237 
 H                    -0.77893   3.76573   0.52994 
 H                    -0.63936   2.38083   1.59256 
 H                    -0.09093  -2.46574   1.43034 
 H                     3.06566  -1.49542   1.28434 
 H                     0.03664  -3.10182  -0.82231 
 H                     1.36274  -2.42994  -1.78882 
 H                     1.71793  -3.55935  -0.46709 
 H                     1.71901   2.93022   1.38203 
 H                    -0.02476   1.96743  -2.17026 
 H                     1.69903   2.36771  -2.0099 
 H                     0.47354   3.63379  -1.81826 
 H                    -4.8708    1.41984  -0.61879 
 H                    -5.48523  -0.30434  -0.28928 
 H                     3.27255   1.15477   0.56586 
 

 GradGradGradGradGradGradGradGradGradGradGradGradGradGradGradGradGradGrad
 Berny optimization.
 Initialization pass.
                           ----------------------------
                           !    Initial Parameters    !
                           ! (Angstroms and Degrees)  !
 --------------------------                            --------------------------
 ! Name  Definition              Value          Derivative Info.                !
 --------------------------------------------------------------------------------
 ! R1    R(1,2)                  1.5268         estimate D2E/DX2                !
 ! R2    R(1,7)                  1.5356         estimate D2E/DX2                !
 ! R3    R(1,8)                  1.4688         estimate D2E/DX2                !
 ! R4    R(1,15)                 1.4538         estimate D2E/DX2                !
 ! R5    R(2,3)                  1.5256         estimate D2E/DX2                !
 ! R6    R(2,10)                 1.5763         estimate D2E/DX2                !
 ! R7    R(2,22)                 1.0978         estimate D2E/DX2                !
 ! R8    R(3,4)                  1.5453         estimate D2E/DX2                !
 ! R9    R(3,11)                 1.4556         estimate D2E/DX2                !
 ! R10   R(3,23)                 1.0952         estimate D2E/DX2                !
 ! R11   R(4,5)                  1.5429         estimate D2E/DX2                !
 ! R12   R(4,13)                 1.5094         estimate D2E/DX2                !
 ! R13   R(4,24)                 1.101          estimate D2E/DX2                !
 ! R14   R(5,6)                  1.5463         estimate D2E/DX2                !
 ! R15   R(5,25)                 1.0969         estimate D2E/DX2                !
 ! R16   R(5,26)                 1.0963         estimate D2E/DX2                !
 ! R17   R(6,7)                  1.5554         estimate D2E/DX2                !
 ! R18   R(6,27)                 1.0956         estimate D2E/DX2                !
 ! R19   R(6,28)                 1.098          estimate D2E/DX2                !
 ! R20   R(7,17)                 1.4292         estimate D2E/DX2                !
 ! R21   R(7,18)                 1.5288         estimate D2E/DX2                !
 ! R22   R(8,9)                  1.5124         estimate D2E/DX2                !
 ! R23   R(8,15)                 1.4395         estimate D2E/DX2                !
 ! R24   R(8,40)                 1.0856         estimate D2E/DX2                !
 ! R25   R(9,10)                 1.5666         estimate D2E/DX2                !
 ! R26   R(9,21)                 1.8249         estimate D2E/DX2                !
 ! R27   R(9,30)                 1.0901         estimate D2E/DX2                !
 ! R28   R(10,14)                1.4257         estimate D2E/DX2                !
 ! R29   R(10,16)                1.5317         estimate D2E/DX2                !
 ! R30   R(11,12)                1.3752         estimate D2E/DX2                !
 ! R31   R(12,13)                1.4942         estimate D2E/DX2                !
 ! R32   R(12,19)                1.204          estimate D2E/DX2                !
 ! R33   R(13,20)                1.3337         estimate D2E/DX2                !
 ! R34   R(14,29)                0.973          estimate D2E/DX2                !
 ! R35   R(16,31)                1.0946         estimate D2E/DX2                !
 ! R36   R(16,32)                1.0929         estimate D2E/DX2                !
 ! R37   R(16,33)                1.0942         estimate D2E/DX2                !
 ! R38   R(17,34)                0.9746         estimate D2E/DX2                !
 ! R39   R(18,35)                1.0939         estimate D2E/DX2                !
 ! R40   R(18,36)                1.0943         estimate D2E/DX2                !
 ! R41   R(18,37)                1.0947         estimate D2E/DX2                !
 ! R42   R(20,38)                1.0862         estimate D2E/DX2                !
 ! R43   R(20,39)                1.0864         estimate D2E/DX2                !
 ! A1    A(2,1,7)              123.5788         estimate D2E/DX2                !
 ! A2    A(2,1,8)              108.8768         estimate D2E/DX2                !
 ! A3    A(2,1,15)             111.6436         estimate D2E/DX2                !
 ! A4    A(7,1,8)              123.8795         estimate D2E/DX2                !
 ! A5    A(7,1,15)             111.6035         estimate D2E/DX2                !
 ! A6    A(1,2,3)              110.2972         estimate D2E/DX2                !
 ! A7    A(1,2,10)             105.9565         estimate D2E/DX2                !
 ! A8    A(1,2,22)             108.342          estimate D2E/DX2                !
 ! A9    A(3,2,10)             115.4228         estimate D2E/DX2                !
 ! A10   A(3,2,22)             108.8301         estimate D2E/DX2                !
 ! A11   A(10,2,22)            107.7537         estimate D2E/DX2                !
 ! A12   A(2,3,4)              113.1612         estimate D2E/DX2                !
 ! A13   A(2,3,11)             110.8575         estimate D2E/DX2                !
 ! A14   A(2,3,23)             109.4234         estimate D2E/DX2                !
 ! A15   A(4,3,11)             104.9805         estimate D2E/DX2                !
 ! A16   A(4,3,23)             111.7056         estimate D2E/DX2                !
 ! A17   A(11,3,23)            106.4402         estimate D2E/DX2                !
 ! A18   A(3,4,5)              116.6675         estimate D2E/DX2                !
 ! A19   A(3,4,13)             101.5236         estimate D2E/DX2                !
 ! A20   A(3,4,24)             105.8157         estimate D2E/DX2                !
 ! A21   A(5,4,13)             117.0572         estimate D2E/DX2                !
 ! A22   A(5,4,24)             108.2717         estimate D2E/DX2                !
 ! A23   A(13,4,24)            106.543          estimate D2E/DX2                !
 ! A24   A(4,5,6)              117.6585         estimate D2E/DX2                !
 ! A25   A(4,5,25)             108.6609         estimate D2E/DX2                !
 ! A26   A(4,5,26)             107.8478         estimate D2E/DX2                !
 ! A27   A(6,5,25)             106.7889         estimate D2E/DX2                !
 ! A28   A(6,5,26)             109.3782         estimate D2E/DX2                !
 ! A29   A(25,5,26)            105.9077         estimate D2E/DX2                !
 ! A30   A(5,6,7)              120.7517         estimate D2E/DX2                !
 ! A31   A(5,6,27)             107.664          estimate D2E/DX2                !
 ! A32   A(5,6,28)             109.1421         estimate D2E/DX2                !
 ! A33   A(7,6,27)             105.8609         estimate D2E/DX2                !
 ! A34   A(7,6,28)             106.5627         estimate D2E/DX2                !
 ! A35   A(27,6,28)            105.94           estimate D2E/DX2                !
 ! A36   A(1,7,6)              109.7433         estimate D2E/DX2                !
 ! A37   A(1,7,17)             107.6423         estimate D2E/DX2                !
 ! A38   A(1,7,18)             112.6763         estimate D2E/DX2                !
 ! A39   A(6,7,17)             107.1108         estimate D2E/DX2                !
 ! A40   A(6,7,18)             113.6481         estimate D2E/DX2                !
 ! A41   A(17,7,18)            105.6114         estimate D2E/DX2                !
 ! A42   A(1,8,9)              110.176          estimate D2E/DX2                !
 ! A43   A(1,8,40)             123.3486         estimate D2E/DX2                !
 ! A44   A(9,8,15)             111.6871         estimate D2E/DX2                !
 ! A45   A(9,8,40)             120.4935         estimate D2E/DX2                !
 ! A46   A(15,8,40)            116.1421         estimate D2E/DX2                !
 ! A47   A(8,9,10)             106.1224         estimate D2E/DX2                !
 ! A48   A(8,9,21)             107.0922         estimate D2E/DX2                !
 ! A49   A(8,9,30)             113.4647         estimate D2E/DX2                !
 ! A50   A(10,9,21)            114.8002         estimate D2E/DX2                !
 ! A51   A(10,9,30)            109.4015         estimate D2E/DX2                !
 ! A52   A(21,9,30)            106.1319         estimate D2E/DX2                !
 ! A53   A(2,10,9)             104.4719         estimate D2E/DX2                !
 ! A54   A(2,10,14)            111.5698         estimate D2E/DX2                !
 ! A55   A(2,10,16)            112.1509         estimate D2E/DX2                !
 ! A56   A(9,10,14)            103.8471         estimate D2E/DX2                !
 ! A57   A(9,10,16)            114.8553         estimate D2E/DX2                !
 ! A58   A(14,10,16)           109.6094         estimate D2E/DX2                !
 ! A59   A(3,11,12)            110.7765         estimate D2E/DX2                !
 ! A60   A(11,12,13)           108.0801         estimate D2E/DX2                !
 ! A61   A(11,12,19)           122.2917         estimate D2E/DX2                !
 ! A62   A(13,12,19)           129.6276         estimate D2E/DX2                !
 ! A63   A(4,13,12)            107.1752         estimate D2E/DX2                !
 ! A64   A(4,13,20)            130.914          estimate D2E/DX2                !
 ! A65   A(12,13,20)           121.9103         estimate D2E/DX2                !
 ! A66   A(10,14,29)           106.7023         estimate D2E/DX2                !
 ! A67   A(10,16,31)           109.1405         estimate D2E/DX2                !
 ! A68   A(10,16,32)           112.2974         estimate D2E/DX2                !
 ! A69   A(10,16,33)           109.8973         estimate D2E/DX2                !
 ! A70   A(31,16,32)           108.3082         estimate D2E/DX2                !
 ! A71   A(31,16,33)           108.6702         estimate D2E/DX2                !
 ! A72   A(32,16,33)           108.4499         estimate D2E/DX2                !
 ! A73   A(7,17,34)            105.7043         estimate D2E/DX2                !
 ! A74   A(7,18,35)            112.3611         estimate D2E/DX2                !
 ! A75   A(7,18,36)            109.9735         estimate D2E/DX2                !
 ! A76   A(7,18,37)            109.3382         estimate D2E/DX2                !
 ! A77   A(35,18,36)           108.5868         estimate D2E/DX2                !
 ! A78   A(35,18,37)           108.3479         estimate D2E/DX2                !
 ! A79   A(36,18,37)           108.1292         estimate D2E/DX2                !
 ! A80   A(13,20,38)           122.3921         estimate D2E/DX2                !
 ! A81   A(13,20,39)           119.8554         estimate D2E/DX2                !
 ! A82   A(38,20,39)           117.7525         estimate D2E/DX2                !
 ! D1    D(7,1,2,3)            -62.1429         estimate D2E/DX2                !
 ! D2    D(7,1,2,10)           172.2792         estimate D2E/DX2                !
 ! D3    D(7,1,2,22)            56.8806         estimate D2E/DX2                !
 ! D4    D(8,1,2,3)            138.7692         estimate D2E/DX2                !
 ! D5    D(8,1,2,10)            13.1914         estimate D2E/DX2                !
 ! D6    D(8,1,2,22)          -102.2073         estimate D2E/DX2                !
 ! D7    D(15,1,2,3)            75.4927         estimate D2E/DX2                !
 ! D8    D(15,1,2,10)          -50.0851         estimate D2E/DX2                !
 ! D9    D(15,1,2,22)         -165.4837         estimate D2E/DX2                !
 ! D10   D(2,1,7,6)             65.7632         estimate D2E/DX2                !
 ! D11   D(2,1,7,17)          -177.9947         estimate D2E/DX2                !
 ! D12   D(2,1,7,18)           -61.9589         estimate D2E/DX2                !
 ! D13   D(8,1,7,6)           -138.2414         estimate D2E/DX2                !
 ! D14   D(8,1,7,17)           -21.9993         estimate D2E/DX2                !
 ! D15   D(8,1,7,18)            94.0365         estimate D2E/DX2                !
 ! D16   D(15,1,7,6)           -71.887          estimate D2E/DX2                !
 ! D17   D(15,1,7,17)           44.3552         estimate D2E/DX2                !
 ! D18   D(15,1,7,18)          160.391          estimate D2E/DX2                !
 ! D19   D(2,1,8,9)             -0.4143         estimate D2E/DX2                !
 ! D20   D(2,1,8,40)           152.3329         estimate D2E/DX2                !
 ! D21   D(7,1,8,9)           -159.4253         estimate D2E/DX2                !
 ! D22   D(7,1,8,40)            -6.6781         estimate D2E/DX2                !
 ! D23   D(1,2,3,4)             78.2718         estimate D2E/DX2                !
 ! D24   D(1,2,3,11)          -164.0914         estimate D2E/DX2                !
 ! D25   D(1,2,3,23)           -46.9949         estimate D2E/DX2                !
 ! D26   D(10,2,3,4)          -161.7061         estimate D2E/DX2                !
 ! D27   D(10,2,3,11)          -44.0693         estimate D2E/DX2                !
 ! D28   D(10,2,3,23)           73.0272         estimate D2E/DX2                !
 ! D29   D(22,2,3,4)           -40.4541         estimate D2E/DX2                !
 ! D30   D(22,2,3,11)           77.1827         estimate D2E/DX2                !
 ! D31   D(22,2,3,23)         -165.7209         estimate D2E/DX2                !
 ! D32   D(1,2,10,9)           -20.2333         estimate D2E/DX2                !
 ! D33   D(1,2,10,14)           91.3477         estimate D2E/DX2                !
 ! D34   D(1,2,10,16)         -145.2464         estimate D2E/DX2                !
 ! D35   D(3,2,10,9)          -142.6029         estimate D2E/DX2                !
 ! D36   D(3,2,10,14)          -31.0219         estimate D2E/DX2                !
 ! D37   D(3,2,10,16)           92.3839         estimate D2E/DX2                !
 ! D38   D(22,2,10,9)           95.5655         estimate D2E/DX2                !
 ! D39   D(22,2,10,14)        -152.8535         estimate D2E/DX2                !
 ! D40   D(22,2,10,16)         -29.4477         estimate D2E/DX2                !
 ! D41   D(2,3,4,5)            -83.5733         estimate D2E/DX2                !
 ! D42   D(2,3,4,13)           147.9719         estimate D2E/DX2                !
 ! D43   D(2,3,4,24)            36.8853         estimate D2E/DX2                !
 ! D44   D(11,3,4,5)           155.4055         estimate D2E/DX2                !
 ! D45   D(11,3,4,13)           26.9507         estimate D2E/DX2                !
 ! D46   D(11,3,4,24)          -84.1359         estimate D2E/DX2                !
 ! D47   D(23,3,4,5)            40.4543         estimate D2E/DX2                !
 ! D48   D(23,3,4,13)          -88.0004         estimate D2E/DX2                !
 ! D49   D(23,3,4,24)          160.9129         estimate D2E/DX2                !
 ! D50   D(2,3,11,12)         -145.7467         estimate D2E/DX2                !
 ! D51   D(4,3,11,12)          -23.2219         estimate D2E/DX2                !
 ! D52   D(23,3,11,12)          95.3414         estimate D2E/DX2                !
 ! D53   D(3,4,5,6)             28.1652         estimate D2E/DX2                !
 ! D54   D(3,4,5,25)           -93.2478         estimate D2E/DX2                !
 ! D55   D(3,4,5,26)           152.3799         estimate D2E/DX2                !
 ! D56   D(13,4,5,6)           148.6667         estimate D2E/DX2                !
 ! D57   D(13,4,5,25)           27.2537         estimate D2E/DX2                !
 ! D58   D(13,4,5,26)          -87.1186         estimate D2E/DX2                !
 ! D59   D(24,4,5,6)           -90.9787         estimate D2E/DX2                !
 ! D60   D(24,4,5,25)          147.6083         estimate D2E/DX2                !
 ! D61   D(24,4,5,26)           33.236          estimate D2E/DX2                !
 ! D62   D(3,4,13,12)          -22.1132         estimate D2E/DX2                !
 ! D63   D(3,4,13,20)          157.623          estimate D2E/DX2                !
 ! D64   D(5,4,13,12)         -150.3183         estimate D2E/DX2                !
 ! D65   D(5,4,13,20)           29.4179         estimate D2E/DX2                !
 ! D66   D(24,4,13,12)          88.4182         estimate D2E/DX2                !
 ! D67   D(24,4,13,20)         -91.8456         estimate D2E/DX2                !
 ! D68   D(4,5,6,7)             45.0378         estimate D2E/DX2                !
 ! D69   D(4,5,6,27)           166.5866         estimate D2E/DX2                !
 ! D70   D(4,5,6,28)           -78.8549         estimate D2E/DX2                !
 ! D71   D(25,5,6,7)           167.4123         estimate D2E/DX2                !
 ! D72   D(25,5,6,27)          -71.0389         estimate D2E/DX2                !
 ! D73   D(25,5,6,28)           43.5196         estimate D2E/DX2                !
 ! D74   D(26,5,6,7)           -78.4078         estimate D2E/DX2                !
 ! D75   D(26,5,6,27)           43.1409         estimate D2E/DX2                !
 ! D76   D(26,5,6,28)          157.6995         estimate D2E/DX2                !
 ! D77   D(5,6,7,1)            -76.157          estimate D2E/DX2                !
 ! D78   D(5,6,7,17)           167.266          estimate D2E/DX2                !
 ! D79   D(5,6,7,18)            51.0224         estimate D2E/DX2                !
 ! D80   D(27,6,7,1)           161.4245         estimate D2E/DX2                !
 ! D81   D(27,6,7,17)           44.8475         estimate D2E/DX2                !
 ! D82   D(27,6,7,18)          -71.3961         estimate D2E/DX2                !
 ! D83   D(28,6,7,1)            48.9447         estimate D2E/DX2                !
 ! D84   D(28,6,7,17)          -67.6324         estimate D2E/DX2                !
 ! D85   D(28,6,7,18)          176.124          estimate D2E/DX2                !
 ! D86   D(1,7,17,34)          -49.3238         estimate D2E/DX2                !
 ! D87   D(6,7,17,34)           68.6326         estimate D2E/DX2                !
 ! D88   D(18,7,17,34)        -169.9151         estimate D2E/DX2                !
 ! D89   D(1,7,18,35)           63.6621         estimate D2E/DX2                !
 ! D90   D(1,7,18,36)          -57.4175         estimate D2E/DX2                !
 ! D91   D(1,7,18,37)         -175.9997         estimate D2E/DX2                !
 ! D92   D(6,7,18,35)          -61.9735         estimate D2E/DX2                !
 ! D93   D(6,7,18,36)          176.9468         estimate D2E/DX2                !
 ! D94   D(6,7,18,37)           58.3646         estimate D2E/DX2                !
 ! D95   D(17,7,18,35)        -179.0931         estimate D2E/DX2                !
 ! D96   D(17,7,18,36)          59.8273         estimate D2E/DX2                !
 ! D97   D(17,7,18,37)         -58.7549         estimate D2E/DX2                !
 ! D98   D(1,8,9,10)           -12.6259         estimate D2E/DX2                !
 ! D99   D(1,8,9,21)           110.4456         estimate D2E/DX2                !
 ! D100  D(1,8,9,30)          -132.7869         estimate D2E/DX2                !
 ! D101  D(15,8,9,10)           52.0568         estimate D2E/DX2                !
 ! D102  D(15,8,9,21)          175.1284         estimate D2E/DX2                !
 ! D103  D(15,8,9,30)          -68.1042         estimate D2E/DX2                !
 ! D104  D(40,8,9,10)         -166.2718         estimate D2E/DX2                !
 ! D105  D(40,8,9,21)          -43.2003         estimate D2E/DX2                !
 ! D106  D(40,8,9,30)           73.5672         estimate D2E/DX2                !
 ! D107  D(8,9,10,2)            19.9925         estimate D2E/DX2                !
 ! D108  D(8,9,10,14)          -97.0509         estimate D2E/DX2                !
 ! D109  D(8,9,10,16)          143.2714         estimate D2E/DX2                !
 ! D110  D(21,9,10,2)          -98.0801         estimate D2E/DX2                !
 ! D111  D(21,9,10,14)         144.8765         estimate D2E/DX2                !
 ! D112  D(21,9,10,16)          25.1988         estimate D2E/DX2                !
 ! D113  D(30,9,10,2)          142.7606         estimate D2E/DX2                !
 ! D114  D(30,9,10,14)          25.7173         estimate D2E/DX2                !
 ! D115  D(30,9,10,16)         -93.9605         estimate D2E/DX2                !
 ! D116  D(2,10,14,29)          70.3682         estimate D2E/DX2                !
 ! D117  D(9,10,14,29)        -177.6562         estimate D2E/DX2                !
 ! D118  D(16,10,14,29)        -54.4687         estimate D2E/DX2                !
 ! D119  D(2,10,16,31)         -63.3845         estimate D2E/DX2                !
 ! D120  D(2,10,16,32)          56.7287         estimate D2E/DX2                !
 ! D121  D(2,10,16,33)         177.5385         estimate D2E/DX2                !
 ! D122  D(9,10,16,31)         177.5411         estimate D2E/DX2                !
 ! D123  D(9,10,16,32)         -62.3458         estimate D2E/DX2                !
 ! D124  D(9,10,16,33)          58.4641         estimate D2E/DX2                !
 ! D125  D(14,10,16,31)         61.1153         estimate D2E/DX2                !
 ! D126  D(14,10,16,32)       -178.7716         estimate D2E/DX2                !
 ! D127  D(14,10,16,33)        -57.9617         estimate D2E/DX2                !
 ! D128  D(3,11,12,13)           8.9841         estimate D2E/DX2                !
 ! D129  D(3,11,12,19)        -171.2797         estimate D2E/DX2                !
 ! D130  D(11,12,13,4)           9.3599         estimate D2E/DX2                !
 ! D131  D(11,12,13,20)       -170.4053         estimate D2E/DX2                !
 ! D132  D(19,12,13,4)        -170.3506         estimate D2E/DX2                !
 ! D133  D(19,12,13,20)          9.8842         estimate D2E/DX2                !
 ! D134  D(4,13,20,38)          -0.1705         estimate D2E/DX2                !
 ! D135  D(4,13,20,39)         179.7565         estimate D2E/DX2                !
 ! D136  D(12,13,20,38)        179.5326         estimate D2E/DX2                !
 ! D137  D(12,13,20,39)         -0.5404         estimate D2E/DX2                !
 --------------------------------------------------------------------------------
 Trust Radius=3.00D-01 FncErr=1.00D-07 GrdErr=1.00D-06
 Number of steps in this run=    240 maximum allowed number of steps=    240.
 GradGradGradGradGradGradGradGradGradGradGradGradGradGradGradGradGradGrad

                          Input orientation:                          
 ---------------------------------------------------------------------
 Center     Atomic      Atomic             Coordinates (Angstroms)
 Number     Number       Type             X           Y           Z
 ---------------------------------------------------------------------
      1          6           0        1.054630    0.887930    0.251470
      2          6           0        0.285520   -0.347550   -0.210100
      3          6           0       -1.137590   -0.320720    0.338920
      4          6           0       -2.073150    0.628200   -0.443580
      5          6           0       -2.033180    2.119640   -0.050300
      6          6           0       -0.713560    2.672100    0.536540
      7          6           0        0.654500    2.324070   -0.116580
      8          6           0        2.418110    0.487550    0.623120
      9          6           0        2.594020   -1.002640    0.434000
     10          6           0        1.155660   -1.587520    0.225680
     11          8           0       -1.758680   -1.632950    0.233260
     12          6           0       -3.105230   -1.516310   -0.020550
     13          6           0       -3.399280   -0.080890   -0.313450
     14          8           0        0.787460   -2.057130    1.520440
     15          8           0        1.449920    0.783270    1.646560
     16          6           0        1.068010   -2.737430   -0.782330
     17          8           0        1.627360    3.203740    0.451080
     18          6           0        0.697610    2.580180   -1.623110
     19          8           0       -3.848890   -2.462850    0.004730
     20          6           0       -4.648050    0.376760   -0.413530
     21         17           0        3.726380   -1.234090   -0.978200
     22          1           0        0.242370   -0.337800   -1.307010
     23          1           0       -1.111760   -0.075030    1.405880
     24          1           0       -1.773590    0.541500   -1.499450
     25          1           0       -2.814810    2.306840    0.696230
     26          1           0       -2.313190    2.707340   -0.932370
     27          1           0       -0.778930    3.765730    0.529940
     28          1           0       -0.639360    2.380830    1.592560
     29          1           0       -0.090930   -2.465740    1.430340
     30          1           0        3.065660   -1.495420    1.284340
     31          1           0        0.036640   -3.101820   -0.822310
     32          1           0        1.362740   -2.429940   -1.788820
     33          1           0        1.717930   -3.559350   -0.467090
     34          1           0        1.719010    2.930220    1.382030
     35          1           0       -0.024760    1.967430   -2.170260
     36          1           0        1.699030    2.367710   -2.009900
     37          1           0        0.473540    3.633790   -1.818260
     38          1           0       -4.870800    1.419840   -0.618790
     39          1           0       -5.485230   -0.304340   -0.289280
     40          1           0        3.272550    1.154770    0.565860
 ---------------------------------------------------------------------
                    Distance matrix (angstroms):
                    1          2          3          4          5
     1  C    0.000000
     2  C    1.526757   0.000000
     3  C    2.504857   1.525577   0.000000
     4  C    3.214586   2.563187   1.545325   0.000000
     5  C    3.338075   3.389533   2.628484   1.542939   0.000000
     6  C    2.528047   3.267096   3.029163   2.643227   1.546283
     7  C    1.535599   2.698601   3.227070   3.228464   2.696258
     8  C    1.468845   2.437127   3.657468   4.618338   4.788653
     9  C    2.444850   2.484588   3.794597   5.021181   5.603049
    10  C    2.477645   1.576253   2.622327   3.972724   4.897744
    11  O    3.777550   2.455112   1.455632   2.381135   3.773286
    12  C    4.812359   3.591534   2.330292   2.417244   3.790819
    13  C    4.592936   3.695881   2.366083   1.509425   2.603423
    14  O    3.217925   2.483823   2.849022   4.387649   5.279076
    15  O    1.453783   2.466124   3.102245   4.099360   4.098439
    16  C    3.769901   2.579004   3.458665   4.616178   5.808991
    17  O    2.393917   3.853486   4.480998   4.596477   3.850482
    18  C    2.550534   3.276892   3.953826   3.588681   3.184814
    19  O    5.944167   4.649085   3.471534   3.592885   4.929406
    20  C    5.764033   4.990603   3.657320   2.587322   3.163402
    21  Cl   3.626749   3.635306   5.121255   6.114613   6.729118
    22  H    2.142671   1.097802   2.147945   2.653356   3.577214
    23  H    2.636892   2.153613   1.095187   2.199842   2.790350
    24  H    3.344333   2.587038   2.127798   1.100961   2.158228
    25  H    4.145321   4.180821   3.137644   2.160338   1.096949
    26  H    4.006737   4.075208   3.488174   2.149269   1.096287
    27  H    3.423627   4.312747   4.106604   3.530841   2.149287
    28  H    2.626190   3.398388   3.019639   3.045215   2.170240
    29  H    3.734855   2.705455   2.624463   4.124711   5.195223
    30  H    3.285030   3.358591   4.465540   5.822614   6.391251
    31  H    4.255281   2.832445   3.234469   4.302058   5.669550
    32  H    3.907170   2.826501   3.902273   4.792414   5.937458
    33  H    4.553526   3.526117   4.392308   5.648753   6.818759
    34  H    2.427038   3.915807   4.451612   4.797148   4.097260
    35  H    2.862722   3.049202   3.573514   2.995140   2.924235
    36  H    2.778272   3.551046   4.559718   4.439436   4.222672
    37  H    3.487290   4.297976   4.784069   4.172403   3.420815
    38  H    6.012570   5.466107   4.228902   2.912772   2.977413
    39  H    6.669609   5.771455   4.392821   3.540583   4.224860
    40  H    2.255929   3.432408   4.655954   5.465597   5.427835
                    6          7          8          9         10
     6  C    0.000000
     7  C    1.555403   0.000000
     8  C    3.819308   2.651468   0.000000
     9  C    4.945130   3.889971   1.512408   0.000000
    10  C    4.662079   3.958389   2.461230   1.566640   0.000000
    11  O    4.440463   4.647992   4.700435   4.402679   2.914704
    12  C    4.855225   5.375250   5.910757   5.740377   4.268593
    13  C    3.938849   4.717597   5.919655   6.109660   4.827844
    14  O    5.058333   4.678934   3.152713   2.357108   1.425661
    15  O    3.079037   2.472938   1.439539   2.443101   2.779592
    16  C    5.846061   5.121816   3.768097   2.611065   1.531685
    17  O    2.402051   1.429165   2.834179   4.316058   4.819697
    18  C    2.581460   1.528752   3.519200   4.545841   4.582309
    19  O    6.039936   6.573419   6.954319   6.620240   5.085326
    20  C    4.653110   5.656610   7.142656   7.420824   6.160360
    21  Cl   6.104574   4.779052   2.690695   1.824861   2.860567
    22  H    3.656771   2.944915   3.023318   3.000564   2.178311
    23  H    2.908786   3.345630   3.659124   3.941804   2.970133
    24  H    3.131833   3.314439   4.698783   5.019822   4.011148
    25  H    2.138730   3.563295   5.540633   6.346406   5.581406
    26  H    2.172039   3.101547   5.452726   6.301716   5.640906
    27  H    1.095602   2.133329   4.579979   5.841519   5.700219
    28  H    1.097963   2.144401   3.724573   4.821294   4.564894
    29  H    5.252042   5.088311   3.958384   3.215946   1.943312
    30  H    5.675379   4.729141   2.188311   1.090117   2.185713
    31  H    5.978915   5.506368   4.543594   3.539077   2.154900
    32  H    5.979058   5.089067   3.929759   2.914475   2.193345
    33  H    6.763903   5.989021   4.249260   2.848906   2.164299
    34  H    2.588219   1.935570   2.651664   4.139057   4.697285
    35  H    2.880585   2.192302   3.995076   4.739356   4.446526
    36  H    3.521023   2.162778   3.314343   4.258276   4.575687
    37  H    2.806980   2.154954   4.431762   5.573652   5.648456
    38  H    4.492837   5.621280   7.452497   7.918353   6.787898
    39  H    5.684189   6.680917   7.995145   8.141562   6.783300
    40  H    4.265234   2.947401   1.085601   2.265438   3.480963
                   11         12         13         14         15
    11  O    0.000000
    12  C    1.375217   0.000000
    13  C    2.323650   1.494218   0.000000
    14  O    2.884370   4.221395   4.979706   0.000000
    15  O    4.258010   5.368120   5.301241   2.919355   0.000000
    16  C    3.200231   4.414451   5.218595   2.417492   4.294262
    17  O    5.908154   6.700650   6.053132   5.433757   2.705426
    18  C    5.218231   5.814724   5.057767   5.603091   3.805995
    19  O    2.260517   1.203996   2.444815   4.894663   6.427308
    20  C    3.578510   2.473548   1.333749   6.261695   6.449377
    21  Cl   5.631395   6.904175   7.248917   3.944344   4.017633
    22  H    2.837965   3.774956   3.783488   3.353758   3.382093
    23  H    2.054424   2.843574   2.861622   2.747523   2.712344
    24  H    2.780421   2.862690   2.106379   4.736200   4.510748
    25  H    4.105082   3.900589   2.657501   5.718383   4.627344
    26  H    4.528167   4.392945   3.055631   6.191162   4.951154
    27  H    5.494877   5.797815   4.730119   6.110676   3.887117
    28  H    4.383036   4.885728   4.160541   4.662243   2.630628
    29  H    2.215385   3.477428   4.435481   0.972959   3.602365
    30  H    4.939427   6.307381   6.808030   2.358274   2.816780
    31  H    2.548525   3.609433   4.603314   2.672749   4.815247
    32  H    3.803586   4.891243   5.511042   3.379517   4.704695
    33  H    4.035880   5.257022   6.189437   2.659458   4.837116
    34  H    5.851198   6.709110   6.175624   5.075490   2.179858
    35  H    4.663274   5.123182   4.362424   5.520693   4.259698
    36  H    5.743936   6.490303   5.904773   5.733539   3.992769
    37  H    6.077013   6.524024   5.573333   6.605455   4.591706
    38  H    4.441937   3.477946   2.123863   6.977215   6.744519
    39  H    3.990668   2.684304   2.098023   6.759734   7.281942
    40  H    5.761535   6.939353   6.842029   4.171714   2.151257
                   16         17         18         19         20
    16  C    0.000000
    17  O    6.093576   0.000000
    18  C    5.396395   2.357016   0.000000
    19  O    4.987060   7.892958   6.982312   0.000000
    20  C    6.519780   6.936868   5.907133   2.979427   0.000000
    21  Cl   3.060282   5.113029   4.913045   7.736971   8.546623
    22  H    2.591369   4.189461   2.970146   4.793215   5.022461
    23  H    4.077749   4.377757   4.415738   3.893172   4.002463
    24  H    4.397765   4.739045   3.205985   3.949120   3.077155
    25  H    6.535066   4.538436   4.217955   4.929243   2.884015
    26  H    6.410971   4.205744   3.091635   5.474248   3.339516
    27  H    6.886533   2.472303   2.867285   6.963886   5.229277
    28  H    5.895066   2.667991   3.488232   6.023581   4.910223
    29  H    2.512542   6.004538   5.950350   4.019283   5.678645
    30  H    3.131185   4.984489   5.538180   7.098192   8.117213
    31  H    1.094579   6.626613   5.776096   4.023633   5.849268
    32  H    1.092903   6.068404   5.056793   5.511714   6.774849
    33  H    1.094223   6.825733   6.330187   5.693366   7.484753
    34  H    6.101681   0.974618   3.193220   7.872971   7.091096
    35  H    5.025555   3.336073   1.093917   6.243551   5.195300
    36  H    5.288437   2.600097   1.094345   7.627087   6.840885
    37  H    6.482206   2.581888   1.094708   7.692575   6.229943
    38  H    7.251145   6.822976   5.776005   4.063048   1.086170
    39  H    7.007709   7.965155   6.951767   2.724558   1.086373
    40  H    4.671920   2.630229   3.667928   8.007306   8.018754
                   21         22         23         24         25
    21  Cl   0.000000
    22  H    3.612448   0.000000
    23  H    5.516780   3.043434   0.000000
    24  H    5.802938   2.207781   3.042872   0.000000
    25  H    7.624242   4.511479   3.012854   3.003594   0.000000
    26  H    7.212030   3.993009   3.827849   2.302957   1.750532
    27  H    6.897137   4.610466   3.953414   3.937440   2.510143
    28  H    6.223836   4.071352   2.507840   3.772286   2.354032
    29  H    4.678662   3.483145   2.599651   4.523108   5.544002
    30  H    2.371483   4.003267   4.413968   5.942800   7.027303
    31  H    4.138466   2.813728   3.930027   4.124225   6.300026
    32  H    2.770191   2.421656   4.677057   4.330099   6.787082
    33  H    3.114794   3.641583   4.863707   5.483926   7.504081
    34  H    5.190539   4.482338   4.128602   5.119293   4.627575
    35  H    5.073637   2.476014   4.259341   2.354075   4.014517
    36  H    4.259990   3.152094   5.053224   3.956601   5.263231
    37  H    5.914636   4.011028   5.163681   3.835817   4.347034
    38  H    9.004667   5.450454   4.523749   3.337627   2.596756
    39  H    9.284008   5.817413   4.696104   3.994525   3.862724
    40  H    2.880405   3.862305   4.630358   5.486815   6.196791
                   26         27         28         29         30
    26  H    0.000000
    27  H    2.369070   0.000000
    28  H    3.046898   1.751168   0.000000
    29  H    6.105866   6.333663   4.880198   0.000000
    30  H    7.176979   6.559702   5.370986   3.305586   0.000000
    31  H    6.267388   7.046771   6.028932   2.344206   4.024110
    32  H    6.374764   6.953397   6.211734   3.532340   3.635599
    33  H    7.465776   7.802895   6.714515   2.840457   3.023854
    34  H    4.654542   2.768364   2.430650   5.691626   4.627018
    35  H    2.704949   3.330726   3.835029   5.711541   5.785870
    36  H    4.168252   3.813861   4.294876   6.196890   5.257706
    37  H    3.067405   2.664607   3.800283   6.933707   6.531004
    38  H    2.880513   4.854501   4.870180   6.491827   8.666490
    39  H    4.421043   6.275815   5.850976   6.060298   8.775686
    40  H    5.987959   4.820051   4.226154   5.016813   2.753638
                   31         32         33         34         35
    31  H    0.000000
    32  H    1.773163   0.000000
    33  H    1.778272   1.774457   0.000000
    34  H    6.638900   6.237991   6.747871   0.000000
    35  H    5.245764   4.626826   6.040120   4.072648   0.000000
    36  H    5.838636   4.814500   6.124595   3.438314   1.776905
    37  H    6.822847   6.128651   7.423977   3.505433   1.774532
    38  H    6.676061   7.419353   8.259946   7.050541   5.117716
    39  H    6.212975   7.325400   7.906467   8.071972   6.206106
    40  H    5.524191   4.694895   5.070183   2.496366   4.361080
                   36         37         38         39         40
    36  H    0.000000
    37  H    1.772431   0.000000
    38  H    6.782058   5.907815   0.000000
    39  H    7.855824   7.304354   1.859811   0.000000
    40  H    3.252957   4.434414   8.233335   8.919584   0.000000
 Stoichiometry    C15H19ClO5
 Framework group  C1[X(C15H19ClO5)]
 Deg. of freedom   114
 Full point group                 C1      NOp   1
 Largest Abelian subgroup         C1      NOp   1
 Largest concise Abelian subgroup C1      NOp   1
                         Standard orientation:                         
 ---------------------------------------------------------------------
 Center     Atomic      Atomic             Coordinates (Angstroms)
 Number     Number       Type             X           Y           Z
 ---------------------------------------------------------------------
      1          6           0        1.054629    0.887931    0.251470
      2          6           0        0.285520   -0.347549   -0.210100
      3          6           0       -1.137590   -0.320720    0.338920
      4          6           0       -2.073150    0.628200   -0.443580
      5          6           0       -2.033181    2.119640   -0.050300
      6          6           0       -0.713561    2.672100    0.536540
      7          6           0        0.654499    2.324071   -0.116580
      8          6           0        2.418110    0.487551    0.623120
      9          6           0        2.594020   -1.002639    0.434000
     10          6           0        1.155660   -1.587519    0.225680
     11          8           0       -1.758680   -1.632950    0.233260
     12          6           0       -3.105230   -1.516310   -0.020550
     13          6           0       -3.399280   -0.080890   -0.313450
     14          8           0        0.787460   -2.057129    1.520440
     15          8           0        1.449919    0.783271    1.646560
     16          6           0        1.068010   -2.737429   -0.782330
     17          8           0        1.627359    3.203741    0.451080
     18          6           0        0.697609    2.580181   -1.623110
     19          8           0       -3.848890   -2.462850    0.004730
     20          6           0       -4.648050    0.376759   -0.413530
     21         17           0        3.726380   -1.234088   -0.978200
     22          1           0        0.242370   -0.337799   -1.307010
     23          1           0       -1.111760   -0.075030    1.405880
     24          1           0       -1.773590    0.541500   -1.499450
     25          1           0       -2.814811    2.306840    0.696230
     26          1           0       -2.313191    2.707340   -0.932370
     27          1           0       -0.778931    3.765730    0.529940
     28          1           0       -0.639361    2.380830    1.592560
     29          1           0       -0.090930   -2.465739    1.430340
     30          1           0        3.065660   -1.495419    1.284340
     31          1           0        0.036641   -3.101819   -0.822310
     32          1           0        1.362740   -2.429939   -1.788820
     33          1           0        1.717931   -3.559349   -0.467090
     34          1           0        1.719009    2.930221    1.382030
     35          1           0       -0.024761    1.967431   -2.170260
     36          1           0        1.699029    2.367711   -2.009900
     37          1           0        0.473539    3.633791   -1.818260
     38          1           0       -4.870801    1.419839   -0.618790
     39          1           0       -5.485230   -0.304341   -0.289280
     40          1           0        3.272549    1.154772    0.565860
 ---------------------------------------------------------------------
 Rotational constants (GHZ):      0.4164995      0.2509482      0.1799095
 Standard basis: 6-311G(d,p) (5D, 7F)
 There are   521 symmetry adapted cartesian basis functions of A   symmetry.
 There are   500 symmetry adapted basis functions of A   symmetry.
   500 basis functions,   841 primitive gaussians,   521 cartesian basis functions
    83 alpha electrons       83 beta electrons
       nuclear repulsion energy      2045.7282149312 Hartrees.
 NAtoms=   40 NActive=   40 NUniq=   40 SFac= 1.00D+00 NAtFMM=   60 NAOKFM=F Big=F
 Integral buffers will be    131072 words long.
 Raffenetti 2 integral format.
 Two-electron integral symmetry is turned on.
 One-electron integrals computed using PRISM.
 NBasis=   500 RedAO= T EigKep=  3.70D-04  NBF=   500
 NBsUse=   500 1.00D-06 EigRej= -1.00D+00 NBFU=   500
 ExpMin= 1.03D-01 ExpMax= 1.06D+05 ExpMxC= 3.62D+03 IAcc=3 IRadAn=         5 AccDes= 0.00D+00
 Harris functional with IExCor=  908 and IRadAn=       5 diagonalized for initial guess.
 HarFok:  IExCor=  908 AccDes= 0.00D+00 IRadAn=         5 IDoV= 1 UseB2=F ITyADJ=14
 ICtDFT=  3500011 ScaDFX=  1.000000  1.000000  1.000000  1.000000
 FoFCou: FMM=F IPFlag=           0 FMFlag=      100000 FMFlg1=           0
         NFxFlg=           0 DoJE=T BraDBF=F KetDBF=T FulRan=T
         wScrn=  0.000000 ICntrl=     500 IOpCl=  0 I1Cent=   200000004 NGrid=           0
         NMat0=    1 NMatS0=      1 NMatT0=    0 NMatD0=    1 NMtDS0=    0 NMtDT0=    0
 Petite list used in FoFCou.
 Requested convergence on RMS density matrix=1.00D-08 within 128 cycles.
 Requested convergence on MAX density matrix=1.00D-06.
 Requested convergence on             energy=1.00D-06.
 No special actions if energy rises.
 Integral accuracy reduced to 1.0D-05 until final iterations.
 Initial convergence to 1.0D-05 achieved.  Increase integral accuracy.
 SCF Done:  E(RmPW1PW91) =  -1419.37160612     A.U. after   14 cycles
            NFock= 14  Conv=0.73D-08     -V/T= 2.0035

 **********************************************************************

            Population analysis using the SCF density.

 **********************************************************************

 Orbital symmetries:
       Occupied  (A) (A) (A) (A) (A) (A) (A) (A) (A) (A) (A) (A)
                 (A) (A) (A) (A) (A) (A) (A) (A) (A) (A) (A) (A)
                 (A) (A) (A) (A) (A) (A) (A) (A) (A) (A) (A) (A)
                 (A) (A) (A) (A) (A) (A) (A) (A) (A) (A) (A) (A)
                 (A) (A) (A) (A) (A) (A) (A) (A) (A) (A) (A) (A)
                 (A) (A) (A) (A) (A) (A) (A) (A) (A) (A) (A) (A)
                 (A) (A) (A) (A) (A) (A) (A) (A) (A) (A) (A)
       Virtual   (A) (A) (A) (A) (A) (A) (A) (A) (A) (A) (A) (A)
                 (A) (A) (A) (A) (A) (A) (A) (A) (A) (A) (A) (A)
                 (A) (A) (A) (A) (A) (A) (A) (A) (A) (A) (A) (A)
                 (A) (A) (A) (A) (A) (A) (A) (A) (A) (A) (A) (A)
                 (A) (A) (A) (A) (A) (A) (A) (A) (A) (A) (A) (A)
                 (A) (A) (A) (A) (A) (A) (A) (A) (A) (A) (A) (A)
                 (A) (A) (A) (A) (A) (A) (A) (A) (A) (A) (A) (A)
                 (A) (A) (A) (A) (A) (A) (A) (A) (A) (A) (A) (A)
                 (A) (A) (A) (A) (A) (A) (A) (A) (A) (A) (A) (A)
                 (A) (A) (A) (A) (A) (A) (A) (A) (A) (A) (A) (A)
                 (A) (A) (A) (A) (A) (A) (A) (A) (A) (A) (A) (A)
                 (A) (A) (A) (A) (A) (A) (A) (A) (A) (A) (A) (A)
                 (A) (A) (A) (A) (A) (A) (A) (A) (A) (A) (A) (A)
                 (A) (A) (A) (A) (A) (A) (A) (A) (A) (A) (A) (A)
                 (A) (A) (A) (A) (A) (A) (A) (A) (A) (A) (A) (A)
                 (A) (A) (A) (A) (A) (A) (A) (A) (A) (A) (A) (A)
                 (A) (A) (A) (A) (A) (A) (A) (A) (A) (A) (A) (A)
                 (A) (A) (A) (A) (A) (A) (A) (A) (A) (A) (A) (A)
                 (A) (A) (A) (A) (A) (A) (A) (A) (A) (A) (A) (A)
                 (A) (A) (A) (A) (A) (A) (A) (A) (A) (A) (A) (A)
                 (A) (A) (A) (A) (A) (A) (A) (A) (A) (A) (A) (A)
                 (A) (A) (A) (A) (A) (A) (A) (A) (A) (A) (A) (A)
                 (A) (A) (A) (A) (A) (A) (A) (A) (A) (A) (A) (A)
                 (A) (A) (A) (A) (A) (A) (A) (A) (A) (A) (A) (A)
                 (A) (A) (A) (A) (A) (A) (A) (A) (A) (A) (A) (A)
                 (A) (A) (A) (A) (A) (A) (A) (A) (A) (A) (A) (A)
                 (A) (A) (A) (A) (A) (A) (A) (A) (A) (A) (A) (A)
                 (A) (A) (A) (A) (A) (A) (A) (A) (A) (A) (A) (A)
                 (A) (A) (A) (A) (A) (A) (A) (A) (A) (A) (A) (A)
                 (A) (A) (A) (A) (A) (A) (A) (A) (A) (A) (A) (A)
                 (A) (A) (A) (A) (A) (A) (A) (A) (A) (A) (A) (A)
                 (A) (A) (A) (A) (A) (A) (A) (A) (A) (A) (A) (A)
                 (A) (A) (A) (A) (A) (A) (A) (A) (A) (A) (A) (A)
                 (A) (A) (A) (A) (A) (A) (A) (A) (A) (A) (A) (A)
                 (A) (A) (A) (A) (A) (A) (A) (A) (A)
 The electronic state is 1-A.
 Alpha  occ. eigenvalues -- -101.76567 -19.27670 -19.25142 -19.22086 -19.21830
 Alpha  occ. eigenvalues --  -19.21223 -10.37609 -10.32383 -10.32350 -10.31993
 Alpha  occ. eigenvalues --  -10.31712 -10.31509 -10.31181 -10.28051 -10.27862
 Alpha  occ. eigenvalues --  -10.27243 -10.26604 -10.26330 -10.25246 -10.24063
 Alpha  occ. eigenvalues --  -10.23101  -9.54099  -7.28118  -7.27175  -7.27170
 Alpha  occ. eigenvalues --   -1.14796  -1.13423  -1.07045  -1.06386  -1.06023
 Alpha  occ. eigenvalues --   -0.90033  -0.88772  -0.85255  -0.82691  -0.79898
 Alpha  occ. eigenvalues --   -0.78021  -0.75630  -0.74204  -0.71226  -0.69148
 Alpha  occ. eigenvalues --   -0.68423  -0.64796  -0.61502  -0.60411  -0.58736
 Alpha  occ. eigenvalues --   -0.57719  -0.57258  -0.54577  -0.53084  -0.52156
 Alpha  occ. eigenvalues --   -0.51060  -0.49643  -0.49248  -0.47792  -0.47522
 Alpha  occ. eigenvalues --   -0.47433  -0.46579  -0.45873  -0.44841  -0.44248
 Alpha  occ. eigenvalues --   -0.43523  -0.42629  -0.42222  -0.41492  -0.40762
 Alpha  occ. eigenvalues --   -0.40595  -0.40469  -0.39313  -0.39110  -0.38596
 Alpha  occ. eigenvalues --   -0.37602  -0.37033  -0.35778  -0.35268  -0.33816
 Alpha  occ. eigenvalues --   -0.33256  -0.32510  -0.31933  -0.31225  -0.30551
 Alpha  occ. eigenvalues --   -0.30432  -0.29733  -0.28570
 Alpha virt. eigenvalues --   -0.06244   0.00516   0.02795   0.04370   0.05723
 Alpha virt. eigenvalues --    0.06220   0.06553   0.06936   0.07199   0.07862
 Alpha virt. eigenvalues --    0.08920   0.09431   0.09785   0.10075   0.11104
 Alpha virt. eigenvalues --    0.11246   0.11571   0.11888   0.12356   0.13663
 Alpha virt. eigenvalues --    0.14369   0.14533   0.14922   0.15822   0.16371
 Alpha virt. eigenvalues --    0.16559   0.16786   0.18587   0.18892   0.19458
 Alpha virt. eigenvalues --    0.19655   0.20308   0.21234   0.22497   0.23556
 Alpha virt. eigenvalues --    0.24627   0.25876   0.26276   0.27768   0.28003
 Alpha virt. eigenvalues --    0.28157   0.29132   0.29788   0.30593   0.31353
 Alpha virt. eigenvalues --    0.32099   0.32724   0.33098   0.33527   0.34684
 Alpha virt. eigenvalues --    0.36297   0.36604   0.36962   0.38234   0.38824
 Alpha virt. eigenvalues --    0.39358   0.40059   0.41102   0.41997   0.42867
 Alpha virt. eigenvalues --    0.43175   0.43553   0.44658   0.45100   0.45788
 Alpha virt. eigenvalues --    0.46509   0.47564   0.48048   0.48897   0.49455
 Alpha virt. eigenvalues --    0.49534   0.50325   0.50595   0.52472   0.53102
 Alpha virt. eigenvalues --    0.54232   0.54606   0.55249   0.55965   0.56434
 Alpha virt. eigenvalues --    0.57098   0.57218   0.57672   0.58073   0.58961
 Alpha virt. eigenvalues --    0.59168   0.59702   0.60240   0.60500   0.60819
 Alpha virt. eigenvalues --    0.61298   0.62077   0.62383   0.63127   0.63376
 Alpha virt. eigenvalues --    0.64093   0.64535   0.65336   0.65559   0.65974
 Alpha virt. eigenvalues --    0.67146   0.67849   0.68665   0.69956   0.71146
 Alpha virt. eigenvalues --    0.72295   0.73879   0.74512   0.75797   0.77738
 Alpha virt. eigenvalues --    0.78378   0.79432   0.80560   0.81453   0.82985
 Alpha virt. eigenvalues --    0.84249   0.84811   0.86185   0.86966   0.87813
 Alpha virt. eigenvalues --    0.88322   0.89450   0.90648   0.91803   0.93081
 Alpha virt. eigenvalues --    0.93764   0.95099   0.95540   0.95766   0.97236
 Alpha virt. eigenvalues --    0.99224   1.00380   1.00898   1.02427   1.02842
 Alpha virt. eigenvalues --    1.03711   1.04879   1.06331   1.06908   1.08330
 Alpha virt. eigenvalues --    1.10195   1.10913   1.11534   1.12886   1.14291
 Alpha virt. eigenvalues --    1.14898   1.15413   1.17638   1.18711   1.19191
 Alpha virt. eigenvalues --    1.21893   1.23427   1.24692   1.26917   1.27346
 Alpha virt. eigenvalues --    1.28362   1.31154   1.31784   1.34280   1.35336
 Alpha virt. eigenvalues --    1.36011   1.36761   1.38256   1.38621   1.40863
 Alpha virt. eigenvalues --    1.41616   1.42921   1.43662   1.45079   1.45492
 Alpha virt. eigenvalues --    1.46235   1.46906   1.47667   1.47984   1.48418
 Alpha virt. eigenvalues --    1.49191   1.49965   1.50461   1.52471   1.53312
 Alpha virt. eigenvalues --    1.54096   1.54670   1.54755   1.55150   1.56517
 Alpha virt. eigenvalues --    1.57106   1.57647   1.58247   1.58749   1.59436
 Alpha virt. eigenvalues --    1.59968   1.60731   1.61432   1.62543   1.63578
 Alpha virt. eigenvalues --    1.64998   1.65263   1.66764   1.67039   1.68416
 Alpha virt. eigenvalues --    1.69367   1.69838   1.70234   1.70967   1.72017
 Alpha virt. eigenvalues --    1.72741   1.73437   1.75025   1.75726   1.76496
 Alpha virt. eigenvalues --    1.76816   1.77472   1.78040   1.79462   1.80233
 Alpha virt. eigenvalues --    1.82040   1.82384   1.83761   1.84676   1.85654
 Alpha virt. eigenvalues --    1.87206   1.87708   1.88802   1.89958   1.90697
 Alpha virt. eigenvalues --    1.91898   1.92109   1.94046   1.95829   1.96497
 Alpha virt. eigenvalues --    1.97618   1.98832   1.99483   2.01097   2.02647
 Alpha virt. eigenvalues --    2.03654   2.04456   2.05334   2.07472   2.07940
 Alpha virt. eigenvalues --    2.08356   2.09127   2.10936   2.11430   2.12398
 Alpha virt. eigenvalues --    2.13862   2.15229   2.15784   2.18084   2.18925
 Alpha virt. eigenvalues --    2.20272   2.21196   2.22087   2.22784   2.24209
 Alpha virt. eigenvalues --    2.24581   2.26368   2.27599   2.28957   2.29490
 Alpha virt. eigenvalues --    2.31830   2.32744   2.34952   2.37040   2.38017
 Alpha virt. eigenvalues --    2.39460   2.39717   2.41322   2.41875   2.43380
 Alpha virt. eigenvalues --    2.44234   2.46414   2.46826   2.49719   2.50842
 Alpha virt. eigenvalues --    2.51918   2.52485   2.53861   2.54553   2.55468
 Alpha virt. eigenvalues --    2.56069   2.56999   2.57887   2.59196   2.59686
 Alpha virt. eigenvalues --    2.60440   2.61160   2.62469   2.63413   2.63984
 Alpha virt. eigenvalues --    2.65264   2.66616   2.67611   2.68794   2.69979
 Alpha virt. eigenvalues --    2.71747   2.72848   2.73430   2.75717   2.78640
 Alpha virt. eigenvalues --    2.80350   2.82394   2.82611   2.84425   2.85148
 Alpha virt. eigenvalues --    2.87608   2.87760   2.90252   2.90834   2.91559
 Alpha virt. eigenvalues --    2.93144   2.94172   2.96186   2.96651   2.97785
 Alpha virt. eigenvalues --    2.98864   2.99477   3.01211   3.05440   3.06053
 Alpha virt. eigenvalues --    3.08102   3.10078   3.10325   3.11462   3.13093
 Alpha virt. eigenvalues --    3.13627   3.15177   3.15637   3.16213   3.17124
 Alpha virt. eigenvalues --    3.21107   3.22916   3.24071   3.25905   3.26864
 Alpha virt. eigenvalues --    3.29530   3.31399   3.34284   3.35926   3.36331
 Alpha virt. eigenvalues --    3.38330   3.42369   3.43443   3.47184   3.48273
 Alpha virt. eigenvalues --    3.54981   3.57949   3.60039   3.64736   3.65608
 Alpha virt. eigenvalues --    3.71274   3.73796   3.76439   3.80173   3.81088
 Alpha virt. eigenvalues --    3.81895   3.82093   3.82979   3.84022   3.88434
 Alpha virt. eigenvalues --    3.90786   3.95289   3.98567   4.01312   4.03317
 Alpha virt. eigenvalues --    4.05563   4.06137   4.07133   4.12865   4.23614
 Alpha virt. eigenvalues --    4.27441   4.28881   4.30507   4.34410   4.35641
 Alpha virt. eigenvalues --    4.47288   4.56788   4.94476   4.98399   4.99801
 Alpha virt. eigenvalues --    5.00307   5.04540   5.08940   5.32824   5.33710
 Alpha virt. eigenvalues --    5.34938   5.42022   5.50092   5.59868   5.65676
 Alpha virt. eigenvalues --    5.67936   5.83679   9.65629  23.68857  23.71862
 Alpha virt. eigenvalues --   23.80548  23.82332  23.87138  23.89250  23.90092
 Alpha virt. eigenvalues --   23.93298  23.95046  23.96894  23.97922  24.00424
 Alpha virt. eigenvalues --   24.01598  24.05128  24.30343  25.66707  25.69128
 Alpha virt. eigenvalues --   26.31694  49.99344  50.01881  50.05186  50.08644
 Alpha virt. eigenvalues --   50.11616 215.77381
          Condensed to atoms (all electrons):
               1          2          3          4          5          6
     1  C    5.736757   0.208164  -0.078271  -0.002380   0.009994  -0.111817
     2  C    0.208164   5.611806   0.266312  -0.075480  -0.001153  -0.006867
     3  C   -0.078271   0.266312   5.182265   0.258420  -0.063394  -0.011712
     4  C   -0.002380  -0.075480   0.258420   5.373077   0.300040  -0.042167
     5  C    0.009994  -0.001153  -0.063394   0.300040   5.027795   0.293357
     6  C   -0.111817  -0.006867  -0.011712  -0.042167   0.293357   5.104110
     7  C    0.212730  -0.036737  -0.005287  -0.004833  -0.061083   0.372665
     8  C    0.204580  -0.049022   0.009987   0.000171  -0.001037   0.012471
     9  C   -0.088429  -0.092498   0.003729  -0.000260  -0.000004  -0.000461
    10  C   -0.029076   0.155487  -0.048533   0.006751  -0.000288  -0.000419
    11  O    0.003236  -0.027238   0.192688  -0.023847   0.003076  -0.000081
    12  C    0.000020   0.002657  -0.093481  -0.067699   0.005751  -0.000194
    13  C   -0.000975   0.007788  -0.030278   0.268595  -0.063015   0.006520
    14  O   -0.000818  -0.072743   0.016815   0.000847  -0.000018   0.000013
    15  O    0.154248  -0.051906  -0.005028   0.000311   0.000098  -0.010393
    16  C    0.005534  -0.077644   0.002809  -0.000082   0.000014  -0.000016
    17  O   -0.049668   0.003420   0.000068  -0.000084   0.005559  -0.047941
    18  C   -0.094445   0.004357   0.001918  -0.004188  -0.001119  -0.076175
    19  O    0.000001  -0.000096   0.000561   0.004860  -0.000070   0.000000
    20  C   -0.000016  -0.000259   0.009023  -0.064936  -0.002191  -0.000012
    21  Cl  -0.005803   0.008032  -0.001032   0.000039   0.000001   0.000011
    22  H   -0.032732   0.395578  -0.039166  -0.006395   0.001300   0.000926
    23  H    0.001239  -0.055997   0.405975  -0.027640   0.002886   0.000452
    24  H    0.000072  -0.004617  -0.055613   0.406818  -0.018568  -0.000876
    25  H   -0.000496   0.000053  -0.003231  -0.042786   0.403265  -0.022575
    26  H   -0.000321  -0.000611   0.007933  -0.031662   0.403433  -0.033064
    27  H    0.012831  -0.000443  -0.000203   0.006690  -0.024893   0.399218
    28  H   -0.016293  -0.001478   0.006416  -0.005435  -0.032431   0.399422
    29  H    0.000273  -0.004162  -0.000702   0.000258  -0.000067   0.000018
    30  H    0.002917   0.012159  -0.000088   0.000010   0.000000   0.000016
    31  H    0.000811  -0.010726  -0.003035   0.000160   0.000001   0.000000
    32  H    0.000026  -0.000544   0.000060  -0.000113  -0.000001   0.000003
    33  H   -0.000688   0.011430  -0.000517   0.000006   0.000000   0.000000
    34  H   -0.007046   0.000673   0.000261  -0.000034   0.000341  -0.003632
    35  H   -0.005623   0.004519  -0.001483  -0.000614   0.000741  -0.004717
    36  H   -0.009039  -0.001554   0.000043   0.000079  -0.000666   0.008092
    37  H    0.010166  -0.000341  -0.000054   0.000139  -0.000201  -0.004720
    38  H    0.000001  -0.000027   0.000332  -0.013073   0.003037  -0.000023
    39  H    0.000000   0.000018  -0.000393   0.007622  -0.000275   0.000010
    40  H   -0.018471   0.001485  -0.000254   0.000034  -0.000104   0.000993
               7          8          9         10         11         12
     1  C    0.212730   0.204580  -0.088429  -0.029076   0.003236   0.000020
     2  C   -0.036737  -0.049022  -0.092498   0.155487  -0.027238   0.002657
     3  C   -0.005287   0.009987   0.003729  -0.048533   0.192688  -0.093481
     4  C   -0.004833   0.000171  -0.000260   0.006751  -0.023847  -0.067699
     5  C   -0.061083  -0.001037  -0.000004  -0.000288   0.003076   0.005751
     6  C    0.372665   0.012471  -0.000461  -0.000419  -0.000081  -0.000194
     7  C    5.190380  -0.031017  -0.001062   0.003805   0.000002   0.000002
     8  C   -0.031017   5.134479   0.256488  -0.040143  -0.000177  -0.000005
     9  C   -0.001062   0.256488   5.385267   0.246688   0.000079   0.000016
    10  C    0.003805  -0.040143   0.246688   5.406123  -0.004791  -0.000284
    11  O    0.000002  -0.000177   0.000079  -0.004791   8.073559   0.337236
    12  C    0.000002  -0.000005   0.000016  -0.000284   0.337236   4.428599
    13  C   -0.000257   0.000014   0.000009   0.000029  -0.116685   0.235756
    14  O   -0.000111  -0.002580  -0.044796   0.246435  -0.005200   0.000033
    15  O   -0.038158   0.133894  -0.028364   0.008094  -0.000013  -0.000004
    16  C   -0.000027   0.003533  -0.062344   0.345914  -0.007085  -0.000248
    17  O    0.246145   0.009076   0.000974  -0.000179   0.000000   0.000000
    18  C    0.338126  -0.008396   0.000525   0.000016   0.000001  -0.000008
    19  O    0.000000   0.000000   0.000000   0.000003  -0.066124   0.707785
    20  C   -0.000012   0.000000   0.000000   0.000005   0.006758  -0.041581
    21  Cl  -0.000577  -0.089217   0.282251  -0.081491  -0.000003  -0.000001
    22  H   -0.001200  -0.004852   0.003349  -0.020548   0.001459   0.000751
    23  H   -0.000211  -0.000236  -0.000006  -0.002484  -0.030098   0.003552
    24  H    0.002688  -0.000078  -0.000024   0.000051   0.003607   0.005092
    25  H    0.007193   0.000040   0.000000  -0.000002  -0.000149   0.000340
    26  H   -0.005344   0.000004  -0.000002   0.000016  -0.000140  -0.000562
    27  H   -0.034729  -0.000496  -0.000002   0.000044   0.000001   0.000010
    28  H   -0.033814  -0.000428  -0.000039  -0.000076  -0.000052  -0.000057
    29  H    0.000056  -0.000444   0.007940  -0.040300   0.014742   0.000058
    30  H   -0.000260  -0.025560   0.375457  -0.043565   0.000000  -0.000001
    31  H    0.000012  -0.000591   0.008032  -0.024640   0.010553   0.000898
    32  H    0.000006   0.000749  -0.007250  -0.028832   0.000009   0.000014
    33  H    0.000005   0.000429  -0.010547  -0.036825   0.000059  -0.000014
    34  H   -0.047709  -0.003395   0.000639  -0.000110   0.000000   0.000000
    35  H   -0.030896   0.000164   0.000109   0.000031  -0.000014  -0.000023
    36  H   -0.028969   0.004026  -0.000238  -0.000101  -0.000001   0.000000
    37  H   -0.030454  -0.000069  -0.000005   0.000013   0.000000   0.000000
    38  H   -0.000002   0.000000   0.000000   0.000001  -0.000190   0.005327
    39  H    0.000000   0.000000   0.000000  -0.000001   0.000699  -0.008752
    40  H   -0.000600   0.420461  -0.041034   0.005006   0.000001   0.000000
              13         14         15         16         17         18
     1  C   -0.000975  -0.000818   0.154248   0.005534  -0.049668  -0.094445
     2  C    0.007788  -0.072743  -0.051906  -0.077644   0.003420   0.004357
     3  C   -0.030278   0.016815  -0.005028   0.002809   0.000068   0.001918
     4  C    0.268595   0.000847   0.000311  -0.000082  -0.000084  -0.004188
     5  C   -0.063015  -0.000018   0.000098   0.000014   0.005559  -0.001119
     6  C    0.006520   0.000013  -0.010393  -0.000016  -0.047941  -0.076175
     7  C   -0.000257  -0.000111  -0.038158  -0.000027   0.246145   0.338126
     8  C    0.000014  -0.002580   0.133894   0.003533   0.009076  -0.008396
     9  C    0.000009  -0.044796  -0.028364  -0.062344   0.000974   0.000525
    10  C    0.000029   0.246435   0.008094   0.345914  -0.000179   0.000016
    11  O   -0.116685  -0.005200  -0.000013  -0.007085   0.000000   0.000001
    12  C    0.235756   0.000033  -0.000004  -0.000248   0.000000  -0.000008
    13  C    5.582542  -0.000066  -0.000001  -0.000119   0.000001   0.000018
    14  O   -0.000066   7.942894   0.000893  -0.048375   0.000000   0.000001
    15  O   -0.000001   0.000893   8.129547   0.000445  -0.010783   0.004181
    16  C   -0.000119  -0.048375   0.000445   4.930258   0.000001  -0.000009
    17  O    0.000001   0.000000  -0.010783   0.000001   7.949788  -0.052104
    18  C    0.000018   0.000001   0.004181  -0.000009  -0.052104   4.931782
    19  O   -0.102608   0.000001   0.000000  -0.000025   0.000000   0.000000
    20  C    0.589743   0.000000   0.000000   0.000001   0.000000   0.000010
    21  Cl  -0.000002   0.003840   0.004788  -0.010724  -0.000031  -0.000169
    22  H   -0.000776   0.003379   0.003892  -0.002356   0.000007   0.000219
    23  H   -0.006617   0.008720   0.007811   0.000682  -0.000063  -0.000169
    24  H   -0.045445   0.000008  -0.000008  -0.000100  -0.000014  -0.001505
    25  H   -0.004556  -0.000001  -0.000057   0.000000  -0.000239  -0.000314
    26  H   -0.003241   0.000000  -0.000015   0.000000  -0.000081   0.004870
    27  H   -0.000320   0.000000  -0.000170   0.000000   0.007310  -0.007996
    28  H   -0.000016  -0.000081   0.007589  -0.000001  -0.000254   0.009058
    29  H    0.000719   0.326502   0.000820  -0.006605   0.000000  -0.000003
    30  H    0.000000   0.010043  -0.000928   0.000371  -0.000013  -0.000010
    31  H    0.000366  -0.002522   0.000011   0.396768   0.000000  -0.000001
    32  H   -0.000007   0.004391   0.000011   0.389528   0.000000  -0.000009
    33  H   -0.000001   0.003563   0.000015   0.405086   0.000000   0.000000
    34  H    0.000000   0.000017   0.025104   0.000000   0.314715   0.010541
    35  H    0.000395  -0.000002  -0.000001  -0.000013   0.004047   0.395227
    36  H    0.000000   0.000001  -0.000206  -0.000006   0.002277   0.403414
    37  H   -0.000013   0.000000  -0.000156  -0.000001   0.001710   0.398559
    38  H   -0.036050   0.000000   0.000000   0.000000   0.000000  -0.000003
    39  H   -0.034046   0.000000   0.000000   0.000000   0.000000   0.000000
    40  H    0.000000  -0.000272  -0.022008  -0.000103   0.014873  -0.001278
              19         20         21         22         23         24
     1  C    0.000001  -0.000016  -0.005803  -0.032732   0.001239   0.000072
     2  C   -0.000096  -0.000259   0.008032   0.395578  -0.055997  -0.004617
     3  C    0.000561   0.009023  -0.001032  -0.039166   0.405975  -0.055613
     4  C    0.004860  -0.064936   0.000039  -0.006395  -0.027640   0.406818
     5  C   -0.000070  -0.002191   0.000001   0.001300   0.002886  -0.018568
     6  C    0.000000  -0.000012   0.000011   0.000926   0.000452  -0.000876
     7  C    0.000000  -0.000012  -0.000577  -0.001200  -0.000211   0.002688
     8  C    0.000000   0.000000  -0.089217  -0.004852  -0.000236  -0.000078
     9  C    0.000000   0.000000   0.282251   0.003349  -0.000006  -0.000024
    10  C    0.000003   0.000005  -0.081491  -0.020548  -0.002484   0.000051
    11  O   -0.066124   0.006758  -0.000003   0.001459  -0.030098   0.003607
    12  C    0.707785  -0.041581  -0.000001   0.000751   0.003552   0.005092
    13  C   -0.102608   0.589743  -0.000002  -0.000776  -0.006617  -0.045445
    14  O    0.000001   0.000000   0.003840   0.003379   0.008720   0.000008
    15  O    0.000000   0.000000   0.004788   0.003892   0.007811  -0.000008
    16  C   -0.000025   0.000001  -0.010724  -0.002356   0.000682  -0.000100
    17  O    0.000000   0.000000  -0.000031   0.000007  -0.000063  -0.000014
    18  C    0.000000   0.000010  -0.000169   0.000219  -0.000169  -0.001505
    19  O    7.762013   0.005579   0.000000  -0.000025   0.000004  -0.000157
    20  C    0.005579   4.801143   0.000000  -0.000033   0.000445  -0.005988
    21  Cl   0.000000   0.000000  17.041694   0.001775  -0.000018  -0.000009
    22  H   -0.000025  -0.000033   0.001775   0.513439   0.006229   0.006560
    23  H    0.000004   0.000445  -0.000018   0.006229   0.492590   0.006413
    24  H   -0.000157  -0.005988  -0.000009   0.006560   0.006413   0.529116
    25  H   -0.000015   0.002176   0.000000   0.000015   0.002070   0.008017
    26  H    0.000001   0.001819   0.000000  -0.000217  -0.000135  -0.012603
    27  H    0.000000  -0.000011  -0.000001   0.000022  -0.000089  -0.000117
    28  H    0.000000   0.000062  -0.000011  -0.000192   0.000749  -0.000509
    29  H    0.000088  -0.000015  -0.000402  -0.000534  -0.002637  -0.000082
    30  H    0.000000   0.000000  -0.055816  -0.000574   0.000041   0.000001
    31  H    0.000216  -0.000013   0.001421   0.001399   0.000392   0.000161
    32  H   -0.000001   0.000000  -0.010624   0.001854  -0.000142  -0.000011
    33  H   -0.000002   0.000000  -0.003545  -0.000077  -0.000024   0.000004
    34  H    0.000000   0.000000  -0.000074  -0.000145  -0.000093  -0.000014
    35  H    0.000000  -0.000016  -0.000002  -0.000340  -0.000057   0.004263
    36  H    0.000000   0.000000   0.000161   0.000628   0.000019   0.000059
    37  H    0.000000   0.000000   0.000003   0.000070   0.000026   0.000042
    38  H   -0.000033   0.411250   0.000000  -0.000004  -0.000009   0.000193
    39  H    0.011715   0.404974   0.000000   0.000004   0.000048  -0.000252
    40  H    0.000000   0.000000  -0.005251   0.000377   0.000056   0.000008
              25         26         27         28         29         30
     1  C   -0.000496  -0.000321   0.012831  -0.016293   0.000273   0.002917
     2  C    0.000053  -0.000611  -0.000443  -0.001478  -0.004162   0.012159
     3  C   -0.003231   0.007933  -0.000203   0.006416  -0.000702  -0.000088
     4  C   -0.042786  -0.031662   0.006690  -0.005435   0.000258   0.000010
     5  C    0.403265   0.403433  -0.024893  -0.032431  -0.000067   0.000000
     6  C   -0.022575  -0.033064   0.399218   0.399422   0.000018   0.000016
     7  C    0.007193  -0.005344  -0.034729  -0.033814   0.000056  -0.000260
     8  C    0.000040   0.000004  -0.000496  -0.000428  -0.000444  -0.025560
     9  C    0.000000  -0.000002  -0.000002  -0.000039   0.007940   0.375457
    10  C   -0.000002   0.000016   0.000044  -0.000076  -0.040300  -0.043565
    11  O   -0.000149  -0.000140   0.000001  -0.000052   0.014742   0.000000
    12  C    0.000340  -0.000562   0.000010  -0.000057   0.000058  -0.000001
    13  C   -0.004556  -0.003241  -0.000320  -0.000016   0.000719   0.000000
    14  O   -0.000001   0.000000   0.000000  -0.000081   0.326502   0.010043
    15  O   -0.000057  -0.000015  -0.000170   0.007589   0.000820  -0.000928
    16  C    0.000000   0.000000   0.000000  -0.000001  -0.006605   0.000371
    17  O   -0.000239  -0.000081   0.007310  -0.000254   0.000000  -0.000013
    18  C   -0.000314   0.004870  -0.007996   0.009058  -0.000003  -0.000010
    19  O   -0.000015   0.000001   0.000000   0.000000   0.000088   0.000000
    20  C    0.002176   0.001819  -0.000011   0.000062  -0.000015   0.000000
    21  Cl   0.000000   0.000000  -0.000001  -0.000011  -0.000402  -0.055816
    22  H    0.000015  -0.000217   0.000022  -0.000192  -0.000534  -0.000574
    23  H    0.002070  -0.000135  -0.000089   0.000749  -0.002637   0.000041
    24  H    0.008017  -0.012603  -0.000117  -0.000509  -0.000082   0.000001
    25  H    0.550034  -0.030249  -0.002305  -0.010838  -0.000001   0.000000
    26  H   -0.030249   0.557879  -0.009181   0.007519   0.000002   0.000000
    27  H   -0.002305  -0.009181   0.526941  -0.027091   0.000001  -0.000001
    28  H   -0.010838   0.007519  -0.027091   0.553301  -0.000008   0.000013
    29  H   -0.000001   0.000002   0.000001  -0.000008   0.441479  -0.000120
    30  H    0.000000   0.000000  -0.000001   0.000013  -0.000120   0.500634
    31  H    0.000001   0.000001   0.000000   0.000001   0.003471  -0.000343
    32  H    0.000000   0.000000   0.000000   0.000002   0.000434  -0.000223
    33  H    0.000000   0.000000   0.000000   0.000000   0.000205   0.001916
    34  H   -0.000031   0.000008  -0.001002   0.005391  -0.000004   0.000055
    35  H    0.000242  -0.000450  -0.000052  -0.000112  -0.000001   0.000002
    36  H    0.000035  -0.000100  -0.000329  -0.000383   0.000000   0.000011
    37  H   -0.000079   0.000270   0.003814  -0.000184   0.000000   0.000000
    38  H    0.001083   0.000336   0.000012   0.000002   0.000001   0.000000
    39  H   -0.000216   0.000022  -0.000001   0.000001  -0.000003   0.000000
    40  H    0.000004   0.000000  -0.000031  -0.000153   0.000052  -0.001819
              31         32         33         34         35         36
     1  C    0.000811   0.000026  -0.000688  -0.007046  -0.005623  -0.009039
     2  C   -0.010726  -0.000544   0.011430   0.000673   0.004519  -0.001554
     3  C   -0.003035   0.000060  -0.000517   0.000261  -0.001483   0.000043
     4  C    0.000160  -0.000113   0.000006  -0.000034  -0.000614   0.000079
     5  C    0.000001  -0.000001   0.000000   0.000341   0.000741  -0.000666
     6  C    0.000000   0.000003   0.000000  -0.003632  -0.004717   0.008092
     7  C    0.000012   0.000006   0.000005  -0.047709  -0.030896  -0.028969
     8  C   -0.000591   0.000749   0.000429  -0.003395   0.000164   0.004026
     9  C    0.008032  -0.007250  -0.010547   0.000639   0.000109  -0.000238
    10  C   -0.024640  -0.028832  -0.036825  -0.000110   0.000031  -0.000101
    11  O    0.010553   0.000009   0.000059   0.000000  -0.000014  -0.000001
    12  C    0.000898   0.000014  -0.000014   0.000000  -0.000023   0.000000
    13  C    0.000366  -0.000007  -0.000001   0.000000   0.000395   0.000000
    14  O   -0.002522   0.004391   0.003563   0.000017  -0.000002   0.000001
    15  O    0.000011   0.000011   0.000015   0.025104  -0.000001  -0.000206
    16  C    0.396768   0.389528   0.405086   0.000000  -0.000013  -0.000006
    17  O    0.000000   0.000000   0.000000   0.314715   0.004047   0.002277
    18  C   -0.000001  -0.000009   0.000000   0.010541   0.395227   0.403414
    19  O    0.000216  -0.000001  -0.000002   0.000000   0.000000   0.000000
    20  C   -0.000013   0.000000   0.000000   0.000000  -0.000016   0.000000
    21  Cl   0.001421  -0.010624  -0.003545  -0.000074  -0.000002   0.000161
    22  H    0.001399   0.001854  -0.000077  -0.000145  -0.000340   0.000628
    23  H    0.000392  -0.000142  -0.000024  -0.000093  -0.000057   0.000019
    24  H    0.000161  -0.000011   0.000004  -0.000014   0.004263   0.000059
    25  H    0.000001   0.000000   0.000000  -0.000031   0.000242   0.000035
    26  H    0.000001   0.000000   0.000000   0.000008  -0.000450  -0.000100
    27  H    0.000000   0.000000   0.000000  -0.001002  -0.000052  -0.000329
    28  H    0.000001   0.000002   0.000000   0.005391  -0.000112  -0.000383
    29  H    0.003471   0.000434   0.000205  -0.000004  -0.000001   0.000000
    30  H   -0.000343  -0.000223   0.001916   0.000055   0.000002   0.000011
    31  H    0.519415  -0.022653  -0.021763   0.000000  -0.000005   0.000000
    32  H   -0.022653   0.557636  -0.021439  -0.000001  -0.000009   0.000006
    33  H   -0.021763  -0.021439   0.525152   0.000000   0.000000  -0.000001
    34  H    0.000000  -0.000001   0.000000   0.464448  -0.000608  -0.000437
    35  H   -0.000005  -0.000009   0.000000  -0.000608   0.569749  -0.023929
    36  H    0.000000   0.000006  -0.000001  -0.000437  -0.023929   0.521974
    37  H    0.000000   0.000000   0.000000  -0.000359  -0.023654  -0.020898
    38  H    0.000000   0.000000   0.000000   0.000000  -0.000003   0.000000
    39  H   -0.000001   0.000000   0.000000   0.000000   0.000000   0.000000
    40  H    0.000015   0.000034   0.000006  -0.003971  -0.000006   0.001026
              37         38         39         40
     1  C    0.010166   0.000001   0.000000  -0.018471
     2  C   -0.000341  -0.000027   0.000018   0.001485
     3  C   -0.000054   0.000332  -0.000393  -0.000254
     4  C    0.000139  -0.013073   0.007622   0.000034
     5  C   -0.000201   0.003037  -0.000275  -0.000104
     6  C   -0.004720  -0.000023   0.000010   0.000993
     7  C   -0.030454  -0.000002   0.000000  -0.000600
     8  C   -0.000069   0.000000   0.000000   0.420461
     9  C   -0.000005   0.000000   0.000000  -0.041034
    10  C    0.000013   0.000001  -0.000001   0.005006
    11  O    0.000000  -0.000190   0.000699   0.000001
    12  C    0.000000   0.005327  -0.008752   0.000000
    13  C   -0.000013  -0.036050  -0.034046   0.000000
[...]
 -0.00000810,0.00002058,0.00028040,-0.00011145,-0.00064896,0.05015828,-
 0.05743007,-0.01906605,0.00005080,-0.00002454,0.00001028,-0.00002850,-
 0.00002817,0.00000376,-0.00003544,0.00008708,-0.00008360,-0.00014637,-
 0.00004624,-0.00012711,0.00005973,-0.00000569,-0.00001022,0.00000943,0
 .00011115,0.00016580,-0.00001282,0.00001966,0.00001749,-0.00006601,-0.
 00011143,-0.00006849,-0.00023174,0.00021574,0.00042135,-0.00013749,0.0
 0044668,0.00019408,-0.00002572,-0.00000106,0.00000736,0.00002247,0.000
 02621,-0.00001854,0.00000797,0.00001272,-0.00000415,-0.00000641,-0.000
 02980,-0.00002149,0.00000018,0.00000387,-0.00001059,-0.00017648,-0.000
 03246,0.00002567,-0.01734430,0.00345294,0.00804757,-0.05402283,0.05798
 264,0.00130319,-0.00095200,0.00121452,-0.00007094,0.00008972,-0.000061
 51,0.00003776,-0.00011854,-0.00009308,0.00001196,-0.00010482,-0.000043
 27,-0.00072431,-0.00004298,-0.00012031,-0.00219876,0.00193711,-0.00626
 190,0.03303718,-0.00689644,-0.01350485,-0.00039141,0.00069077,-0.00051
 929,-0.00008826,0.00012289,-0.00000375,0.00010168,0.00005477,-0.000012
 87,-0.00009913,0.00006124,0.00002508,0.00007833,-0.00004017,0.00000871
 ,-0.00003336,0.00010217,0.00009014,-0.00006599,-0.00003593,0.00002589,
 -0.00055629,-0.00038945,0.00084640,-0.00004064,-0.00000039,0.00001309,
 -0.00029632,0.00065290,0.00326348,0.08647475,-0.01911377,-0.08003491,-
 0.00002115,0.00001927,-0.00000756,-0.00000951,-0.00000912,0.00000437,0
 .00001598,-0.00009957,0.00000622,0.00002112,0.00005835,0.00001547,0.00
 000778,-0.00006178,0.00005299,0.00004801,0.00018670,0.00008954,0.00007
 175,-0.00002932,0.00017796,0.00020592,-0.00012025,0.00021450,-0.000088
 56,-0.00004469,0.00004309,0.00183029,-0.00056030,-0.00111696,0.0000189
 9,-0.00000655,-0.00000241,-0.00000695,-0.00003152,-0.00000256,-0.00000
 791,-0.00001649,-0.00000649,0.00000913,0.00000265,0.00000930,0.0000033
 7,0.00000576,-0.00000173,-0.00005992,0.00017192,0.00033045,-0.01493054
 ,0.00449430,0.00573377,-0.09744355,0.01920199,0.08853202,-0.00005830,-
 0.00010383,-0.00005494,0.00004505,-0.00015700,-0.00013286,0.00007925,0
 .00005996,-0.00004077,-0.00009496,-0.00018324,-0.00026036,0.00015579,-
 0.00032044,0.00007477,0.00009812,-0.00082754,0.00003113,-0.00106481,-0
 .00132604,-0.00010338,0.00030205,-0.00034925,0.00047657,-0.00005406,-0
 .00005877,0.00007880,-0.00011191,0.00006280,0.00004107,-0.00001488,0.0
 0004901,0.00000678,0.00000479,-0.00003072,-0.00000176,0.00000658,0.000
 06935,0.00009679,0.00005201,-0.00002890,0.00004063,0.00048690,0.000084
 01,-0.00052963,0.00001600,-0.00000043,0.00001207,-0.00003878,0.0003300
 2,-0.00008985,-0.05832794,0.05568761,-0.00903442,0.00000498,0.00001818
 ,-0.00000359,-0.00001776,-0.00003217,0.00000589,-0.00000173,0.00005609
 ,-0.00005700,-0.00007650,0.00008876,0.00016215,0.00000078,0.00000494,0
 .00003787,0.00003667,0.00005318,0.00018417,-0.00002942,0.00013367,-0.0
 0008059,-0.00026123,0.00000542,-0.00006547,0.00024314,0.00009771,0.000
 13753,-0.00000570,0.00010475,-0.00012419,0.00000437,0.00000465,-0.0000
 0262,0.00002085,0.00001104,-0.00001396,0.00000529,0.00000673,-0.000004
 02,-0.00001201,-0.00000764,-0.00000419,-0.00000098,-0.00000808,-0.0000
 0015,-0.00008600,-0.00014742,0.00007153,0.00477014,-0.02151666,0.00514
 909,-0.00502938,0.02885129,-0.00587584,0.05895737,-0.00053281,0.001188
 63,0.00051846,0.00013796,0.00000819,-0.00032280,0.00031064,0.00008816,
 0.00005046,-0.00008107,-0.00013400,-0.00021284,0.00004159,-0.00025408,
 0.00018728,0.00018360,0.00046532,-0.00024477,0.00111940,-0.00703252,0.
 00053719,-0.00023615,0.00007700,-0.00009159,-0.00003212,0.00004473,0.0
 0006648,-0.00009280,0.00016036,-0.00005516,-0.00029757,0.00004147,-0.0
 0003117,0.00027182,-0.00006106,0.00005911,-0.00003098,0.00011268,0.000
 05236,-0.00001042,-0.00012866,0.00013162,0.00012830,-0.00006439,0.0003
 7892,0.00002948,-0.00002024,0.00001774,-0.00007153,0.00126456,-0.00061
 273,0.05602077,-0.29882351,0.04560342,-0.00010095,-0.00002703,-0.00001
 943,-0.00001632,-0.00003956,0.00000385,0.00005399,-0.00004207,-0.00002
 406,0.00003002,0.00014835,0.00021118,-0.00004614,-0.00002983,0.0000377
 0,0.00007892,0.00005008,0.00015963,-0.00006427,0.00007806,-0.00009553,
 -0.00033791,0.00003166,-0.00010976,-0.00037062,0.00024126,0.00042123,0
 .00001009,0.00020063,-0.00006005,0.00003148,0.00002360,-0.00001749,0.0
 0001222,-0.00002870,-0.00000591,-0.00000547,-0.00000195,-0.00000110,-0
 .00000433,0.00001619,0.00001222,0.00000500,-0.00002429,-0.00000040,0.0
 0000774,0.00012202,0.00001266,0.00453321,-0.01525786,0.00326974,0.0000
 4410,-0.00481746,0.00074226,-0.06071461,0.32242826,0.00073621,-0.00283
 496,-0.00508324,-0.00016674,-0.00022282,-0.00021352,-0.00015521,0.0000
 3953,0.00008517,-0.00017490,-0.00005821,-0.00009750,0.00025137,-0.0000
 9339,-0.00001806,-0.00069130,0.00049283,0.00183747,-0.00771321,0.03606
 277,-0.00784331,0.00040298,-0.00033791,-0.00026141,0.00003829,-0.00013
 965,-0.00023392,-0.00004381,0.00005303,0.00005940,0.00015378,-0.000033
 76,0.00002432,-0.00010636,0.00009329,-0.00003844,0.00007259,-0.0000360
 8,0.00004841,0.00007034,0.00001503,0.00006239,-0.00127045,0.00229627,-
 0.00198001,-0.00000209,0.00003489,-0.00003625,0.00130701,-0.00052656,0
 .00308150,-0.00919451,0.04291722,-0.05334312,0.00002724,-0.00004863,0.
 00001340,-0.00001931,-0.00001764,-0.00000104,-0.00006194,0.00004933,0.
 00016608,0.00010439,0.00023196,0.00019644,-0.00005548,-0.00000180,0.00
 002983,0.00006252,0.00003675,0.00006024,0.00003483,0.00001434,0.000032
 45,0.00012840,0.00007892,-0.00001219,0.00045283,-0.00064624,-0.0003747
 0,-0.00029650,-0.00034320,0.00024857,-0.00001777,0.00001168,0.00000286
 ,-0.00000851,0.00004064,0.00003401,0.00000245,0.00000991,0.00000548,-0
 .00000909,0.00001107,0.00001283,-0.00000319,0.00000470,0.00001656,0.00
 022175,0.00014266,0.00025019,0.00477275,-0.01525932,0.00234956,0.00148
 622,-0.01156429,0.00139196,0.00980893,-0.05057149,0.05951256,-0.000012
 77,0.00010350,0.00000793,0.00003306,-0.00013844,0.00002150,0.00056895,
 0.00089796,-0.00003156,0.00156080,-0.00019606,0.00030636,-0.00027926,0
 .00036990,0.00026371,0.00003612,-0.00041227,-0.00012020,-0.00016616,0.
 00014097,0.00011424,-0.00003376,-0.00001995,0.00000765,0.00000525,0.00
 000840,0.00002015,0.00007424,0.00006592,-0.00005924,-0.00217878,0.0015
 8976,-0.00088704,-0.00440527,-0.00279877,0.00046420,-0.00143772,0.0311
 5248,-0.00548944,-0.00009118,-0.00003900,0.00001065,0.00003263,-0.0000
 6879,-0.00000731,0.00001652,0.00001344,0.00001831,0.00023262,-0.000013
 70,0.00000270,0.00002971,-0.00003387,-0.00001047,0.00132278,0.00076611
 ,-0.00010093,-0.06690586,0.05092339,-0.00924640,0.00000288,-0.00001832
 ,-0.00000721,-0.00000600,0.00001451,0.00001074,-0.00002168,-0.00006749
 ,-0.00001756,-0.00012231,-0.00000883,-0.00004162,-0.00015738,-0.000201
 11,-0.00054568,-0.00028485,-0.00043910,0.00022442,-0.00001025,0.000001
 87,-0.00001666,0.00010552,0.00003508,0.00006733,0.00008890,-0.00003309
 ,0.00006441,0.00000535,-0.00000897,-0.00000072,-0.00000227,-0.00003336
 ,-0.00001904,-0.00000790,0.00000060,0.00000637,-0.00000989,-0.00000772
 ,-0.00000272,-0.00005395,0.00002605,-0.00002089,-0.00001802,0.00002537
 ,0.00001150,0.00002501,0.00000326,-0.00000942,-0.00001629,-0.00001829,
 0.00000918,0.06425465,0.00001366,-0.00004954,-0.00003092,0.00001631,0.
 00004194,0.00003454,-0.00021847,-0.00063374,-0.00004372,-0.00114275,-0
 .00042523,-0.00141160,-0.00012936,0.00036101,0.00005469,-0.00013699,0.
 00013761,0.00005851,0.00000853,-0.00005402,-0.00001567,0.00000978,0.00
 001322,-0.00000371,-0.00001376,-0.00000441,0.00001502,-0.00004022,-0.0
 0000181,0.00002051,0.00109327,-0.00039824,-0.00014910,0.00024620,0.001
 48879,0.00214731,-0.00048882,-0.00573215,0.00236048,0.00005643,-0.0000
 0255,0.00000011,0.00000393,0.00002147,0.00000814,-0.00001154,-0.000017
 08,-0.00000780,-0.00002246,0.00002206,-0.00000700,0.00000033,0.0000143
 8,-0.00000876,0.00039746,0.00022911,-0.00030889,0.05503769,-0.32560352
 ,0.05185689,0.00001479,0.00000409,-0.00001031,-0.00000206,-0.00000314,
 0.00000526,0.00000908,0.00006739,0.00000916,0.00051265,0.00007372,-0.0
 0005989,-0.00000863,0.00007215,0.00009304,-0.00005656,0.00002405,-0.00
 005925,0.00002342,0.00001619,0.00000979,0.00000235,-0.00000022,-0.0000
 0458,-0.00004787,0.00002695,-0.00003513,0.00000245,0.00000099,-0.00000
 065,0.00000170,0.00002376,0.00001258,0.00000582,0.00000236,-0.00000385
 ,0.00000939,0.00000023,0.00000114,0.00000362,-0.00001371,-0.00000056,0
 .00000690,-0.00001065,0.00000873,-0.00000148,-0.00000126,0.00000241,0.
 00000403,0.00000840,0.00000114,-0.06155512,0.34134010,0.00002783,0.000
 04428,-0.00000727,0.00000360,0.00013757,-0.00009145,-0.00043624,-0.001
 04204,0.00052729,-0.00020956,-0.00103079,-0.00742169,-0.00068013,0.000
 13743,0.00053751,0.00024284,-0.00031252,-0.00031776,-0.00002231,0.0000
 8550,0.00005904,-0.00001369,-0.00000264,0.00000870,-0.00000247,0.00001
 705,0.00000514,-0.00004200,-0.00001808,0.00005529,0.00074626,-0.000355
 45,-0.00239509,-0.00047015,0.00206356,0.01446471,-0.00109358,0.0028620
 3,0.00750772,-0.00000642,-0.00001542,-0.00001039,0.00000786,-0.0000301
 3,-0.00002534,-0.00001106,-0.00002045,-0.00001169,0.00009808,-0.000005
 82,-0.00000875,0.00001685,0.00000148,-0.00002161,0.00019040,0.00016210
 ,-0.00197650,-0.00991121,0.05202055,-0.04724869,-0.00000054,-0.0000059
 3,-0.00000348,-0.00000916,0.00001210,0.00004193,-0.00007162,0.00004112
 ,-0.00001438,0.00170156,0.00044507,-0.00006165,-0.00029115,-0.00030118
 ,-0.00042613,0.00008979,0.00004368,0.00002386,-0.00007142,-0.00003180,
 -0.00003384,-0.00003946,0.00000574,-0.00000449,0.00003609,-0.00001664,
 0.00001171,-0.00000159,-0.00000419,-0.00000199,0.00001252,0.00001119,0
 .00000737,0.00000784,0.00000204,0.00000012,0.00000680,0.00000540,-0.00
 000043,-0.00001770,0.00001477,-0.00000190,0.00000338,-0.00000976,0.000
 02845,0.00001005,0.00000830,-0.00000418,0.00000991,0.00001091,0.000010
 26,0.01125347,-0.05727006,0.03385431,0.00008977,0.00003014,0.00002661,
 -0.00014659,0.00052248,-0.00029370,-0.00109094,-0.00138842,0.00059000,
 -0.00098503,0.00343207,-0.00128919,0.00024707,0.00049225,0.00011796,0.
 00008786,-0.00016513,-0.00000559,0.00004916,0.00004572,0.00001883,0.00
 000305,0.00000304,0.00000717,-0.00001295,0.00004418,-0.00003618,-0.000
 10871,-0.00018295,0.00012339,0.00158151,0.00045365,0.00023264,-0.00255
 759,-0.00311561,0.00009055,-0.02203120,-0.02041588,0.00358102,0.000038
 89,0.00005617,-0.00004898,-0.00002012,-0.00000486,-0.00002706,-0.00003
 464,0.00000590,-0.00002017,-0.00001307,-0.00001904,-0.00001203,0.00001
 008,0.00000627,0.00001509,0.00239984,0.00106361,0.00006548,-0.22312428
 ,-0.13909365,0.02252001,-0.00001370,0.00000662,0.00001264,0.00002987,-
 0.00001296,-0.00001949,-0.00003605,0.00012188,-0.00002847,-0.00023507,
 -0.00000199,0.00014145,0.00006428,-0.00009437,-0.00014164,-0.00004620,
 -0.00010317,0.00007123,-0.00004572,-0.00002904,-0.00002821,0.00000597,
 0.00000998,0.00000227,-0.00005497,-0.00001909,-0.00000844,-0.00001967,
 -0.00000459,-0.00000295,-0.00000088,0.00001270,0.00000613,0.00000351,-
 0.00000037,-0.00000276,0.00000470,0.00001648,0.00000876,0.00000294,0.0
 0000502,0.00000482,-0.00000135,0.00000452,-0.00002633,-0.00000667,-0.0
 0000500,-0.00000173,-0.00000704,-0.00000913,-0.00000377,0.00783273,0.0
 0639184,-0.00106065,0.23814527,-0.00006477,-0.00002610,0.00001885,0.00
 001522,-0.00032540,0.00006858,0.00056173,0.00126122,-0.00022639,0.0024
 5626,-0.00100834,0.00214125,0.00000362,-0.00018633,0.00005656,-0.00009
 623,0.00023219,0.00004120,0.00001785,-0.00004986,-0.00005113,-0.000008
 93,-0.00000472,-0.00000221,0.00001395,-0.00003023,0.00000427,0.0000976
 1,0.00006413,-0.00006535,-0.00186177,-0.00029414,-0.00017329,0.0026634
 2,0.00039687,-0.00139172,0.00987982,0.01119179,-0.00115761,-0.00004087
 ,-0.00001655,0.00000041,0.00000506,0.00001278,0.00000135,0.00002407,0.
 00001090,0.00001444,-0.00006099,-0.00000863,-0.00000083,-0.00000812,0.
 00000095,-0.00000314,-0.00112819,0.00005198,0.00022263,-0.14436028,-0.
 17389969,0.02337949,-0.00000358,-0.00000036,0.00000119,0.00000013,0.00
 000525,-0.00000894,-0.00001386,-0.00009269,0.00000377,-0.00023563,-0.0
 0004207,-0.00000486,0.00007159,0.00009558,0.00025518,0.00009816,0.0001
 3266,-0.00015610,0.00004055,0.00002019,0.00002593,-0.00004170,-0.00001
 386,-0.00002171,0.00004905,-0.00000066,0.00003019,0.00000864,0.0000053
 2,0.00000311,-0.00000029,-0.00001783,-0.00000924,-0.00000445,-0.000001
 98,0.00000226,-0.00000921,-0.00000779,-0.00000406,0.00001199,-0.000001
 24,0.00000754,0.00000259,-0.00000941,0.00000449,-0.00000402,0.00000311
 ,0.00000159,0.00000749,0.00000683,-0.00000065,-0.02002708,-0.01103967,
 0.00234071,0.15194058,0.17358634,-0.00002929,-0.00003404,0.00002550,-0
 .00007553,-0.00025964,0.00022863,0.00125631,0.00152178,-0.00042492,0.0
 0012748,0.00092365,0.01221702,0.00057766,0.00039129,-0.00008379,-0.000
 06449,0.00020366,0.00006034,-0.00002876,-0.00002912,0.00006418,0.00000
 915,0.00000109,0.00000475,-0.00000622,-0.00002435,0.00002569,0.0000693
 7,0.00004773,-0.00009070,-0.00068395,0.00029606,0.00131651,-0.00003691
 ,-0.00214264,-0.00930714,-0.00185460,-0.00057030,0.00421670,0.00001924
 ,0.00001360,-0.00004952,0.00001110,0.00001788,-0.00003546,0.00001802,0
 .00000760,0.00001437,-0.00001268,0.00000438,-0.00003445,0.00001964,0.0
 0001870,0.00004406,-0.00001599,-0.00018492,0.00054239,0.02391408,0.023
 25874,-0.04016955,0.00001342,0.00000088,-0.00001847,0.00003052,-0.0000
 0815,-0.00011268,0.00005635,-0.00007177,-0.00000166,-0.00260150,-0.000
 85976,-0.00011347,0.00017136,0.00007392,-0.00005667,-0.00001905,0.0000
 3990,0.00003482,0.00003680,0.00002473,0.00003097,-0.00000360,-0.000013
 28,-0.00001930,-0.00002930,0.00002396,0.00001891,0.00000620,0.00000406
 ,-0.00000035,-0.00001427,-0.00000966,0.00000661,0.00000510,0.00000241,
 -0.00000493,-0.00001134,-0.00000951,-0.00000361,-0.00000511,-0.0000060
 0,0.00000109,-0.00001089,-0.00000779,-0.00004178,-0.00001058,-0.000015
 22,-0.00001152,-0.00001484,-0.00000890,-0.00000608,0.00375793,0.002726
 61,0.00294746,-0.02457647,-0.02534669,0.02878277,-0.00974611,-0.011052
 49,0.00686627,-0.00096641,0.00062395,0.00130793,0.00014040,-0.00053232
 ,-0.00028092,0.00004232,-0.00007017,0.00004172,0.00009350,-0.00003184,
 -0.00008816,0.00020704,0.00015632,0.00014196,-0.00102939,-0.00189169,-
 0.00087782,-0.22455098,-0.14533671,0.00640351,0.00696552,0.00685159,0.
 00014103,-0.00142582,0.00208361,0.00061754,-0.00067389,-0.00007580,-0.
 00012620,0.00035334,-0.00011356,0.00009612,-0.00002387,0.00007131,-0.0
 0003585,0.00016434,-0.00045583,-0.00003729,-0.01506723,-0.00101871,0.0
 0268866,0.00071783,0.00006777,0.00005365,0.00265261,-0.00046458,0.0002
 2333,-0.00012994,0.00041664,0.00012617,-0.00017788,-0.00007926,-0.0000
 3076,-0.00000615,-0.00000635,0.00000350,0.00088917,-0.00009431,-0.0009
 2218,-0.00005680,-0.00016307,-0.00014570,0.00016741,-0.00002965,-0.000
 10821,-0.00000753,-0.00000747,-0.00002090,0.00004071,0.00001789,0.0000
 1315,-0.00002291,0.00002251,-0.00000331,-0.00008849,0.00012475,-0.0000
 2546,0.00009627,-0.00008181,-0.00009932,0.00004493,0.00001472,-0.00002
 909,-0.00000104,-0.00036095,-0.00008496,0.00008885,0.00018426,0.000142
 41,-0.00003263,-0.00002307,-0.00001906,0.00000256,-0.00012054,-0.00003
 548,-0.00094850,0.00040716,0.00085437,0.00010293,-0.00001989,0.0001007
 7,-0.00000138,0.00001973,-0.00025670,0.00001955,0.00002317,-0.00014993
 ,-0.00000618,0.00000447,-0.00000300,-0.00000409,0.00000059,0.00000563,
 0.24217795,0.00697942,0.00654829,-0.00255692,0.00112362,-0.00099180,-0
 .00021696,-0.00011876,0.00047917,0.00000098,-0.00012904,-0.00001387,0.
 00001302,-0.00007749,0.00003329,0.00007595,-0.00027798,-0.00011290,-0.
 00016456,0.00017712,0.00063245,0.00070718,-0.14774312,-0.16985057,0.00
 449403,-0.02179625,-0.01079991,0.00080392,0.00302202,-0.00383239,-0.00
 114092,0.00036831,0.00020052,0.00003538,-0.00002478,0.00007525,-0.0000
 3135,-0.00003662,0.00001228,-0.00000897,-0.00056578,0.00005392,0.00033
 414,0.00857503,0.00583766,0.00058102,-0.00146736,-0.00004488,0.0002429
 8,-0.00003065,-0.00123240,-0.00001733,-0.00008406,-0.00031526,-0.00001
 569,0.00005816,0.00003606,0.00001556,0.00000101,-0.00000045,-0.0000002
 0,0.00017939,0.00107257,0.00028665,0.00001451,0.00008744,0.00006946,-0
 .00008378,0.00000138,0.00005170,0.00000137,-0.00000606,0.00001447,-0.0
 0002970,-0.00000595,-0.00001109,0.00000616,-0.00000268,0.00000242,0.00
 007270,-0.00008534,-0.00000677,-0.00004042,0.00004769,0.00004270,-0.00
 000787,-0.00006142,0.00010729,0.00030816,-0.00014040,0.00022020,-0.000
 04029,-0.00037112,-0.00034967,0.00001560,0.00002249,-0.00010142,0.0000
 2105,0.00007677,0.00007226,0.00068223,-0.00020038,-0.00071334,-0.00003
 506,0.00001612,-0.00007005,0.00002060,0.00006887,0.00007534,0.00002204
 ,-0.00001921,0.00009862,0.00000076,0.00000097,0.00000032,0.00000015,-0
 .00000052,-0.00000089,0.15093962,0.17278436,-0.00904176,-0.01583837,-0
 .00130244,-0.00261915,0.00008015,0.00180137,0.00013812,-0.00092176,-0.
 00090400,-0.00000663,0.00000033,0.00012497,0.00000941,-0.00005141,-0.0
 0001629,-0.00004018,-0.00001734,-0.00004138,0.00033035,-0.00047368,0.0
 0026371,0.00162721,0.00600766,-0.03983771,-0.00230926,-0.00016781,0.00
 117437,-0.00131633,-0.00067949,-0.00050065,-0.00076986,0.00000260,0.00
 007940,0.00029761,-0.00016836,0.00012620,-0.00005706,0.00006153,-0.000
 03009,-0.00030556,-0.00011193,0.00029104,0.03025144,0.01546554,-0.0036
 7288,-0.00015612,-0.00021769,0.00010456,0.00052486,0.00022400,-0.00021
 367,-0.00020895,-0.00008542,0.00010779,-0.00016383,-0.00003833,-0.0000
 4230,0.00000259,0.00000415,0.00000117,-0.00063812,-0.00013111,0.000273
 19,0.00005327,0.00008992,-0.00000681,-0.00013865,-0.00003894,0.0001126
 5,0.00002012,-0.00001961,0.00001287,0.00000550,0.00001485,-0.00000203,
 -0.00000144,0.00003355,0.00001280,0.00002395,0.00005558,0.00002852,-0.
 00003778,0.00005209,0.00002082,0.00001275,-0.00002563,0.00004192,0.000
 16607,-0.00019001,0.00000895,-0.00002046,-0.00006842,-0.00004508,-0.00
 001667,0.00002774,0.00000852,0.00000872,-0.00004619,0.00001061,0.00069
 083,0.00007239,-0.00004022,0.00010525,-0.00000666,0.00001137,-0.000030
 69,0.00004043,-0.00027979,0.00006873,0.00000075,0.00001085,-0.00000866
 ,0.00000541,-0.00000213,-0.00000222,-0.00000107,0.00000327,-0.01644740
 ,-0.00293944,0.04230654\\-0.00000056,0.00000033,-0.00000089,0.00000040
 ,-0.00000026,0.00000028,0.00000018,0.00000096,-0.00000024,0.,0.0000006
 3,0.00000112,0.00000053,-0.00000003,0.00000001,0.00000128,0.00000010,-
 0.00000010,-0.00000016,-0.00000082,-0.00000041,0.00000008,-0.00000093,
 0.00000007,-0.00000057,-0.00000082,-0.00000081,-0.00000043,-0.00000028
 ,-0.00000009,-0.00000003,0.00000037,0.00000030,-0.00000174,-0.00000122
 ,0.00000034,-0.00000037,0.00000148,0.00000043,0.00000024,-0.00000025,0
 .00000079,0.00000089,-0.00000078,-0.00000069,-0.00000049,0.00000002,0.
 00000012,0.00000150,-0.00000019,-0.00000068,0.,-0.00000011,0.00000020,
 -0.00000021,0.00000173,0.00000087,0.00000029,0.00000145,0.00000082,-0.
 00000085,-0.00000124,-0.00000075,-0.00000050,-0.00000008,-0.00000059,0
 .00000011,0.00000025,0.00000054,-0.00000009,0.00000022,-0.00000022,0.0
 0000049,0.00000075,0.00000055,0.00000050,0.00000047,0.00000022,0.00000
 088,0.00000028,-0.00000013,0.00000069,0.00000008,0.00000013,-0.0000007
 4,-0.00000020,0.00000004,-0.00000021,-0.00000080,-0.00000030,-0.000001
 14,0.,0.00000011,-0.00000078,-0.00000057,-0.00000063,-0.00000088,-0.00
 000062,-0.00000031,0.00000063,-0.00000019,-0.00000024,-0.00000007,-0.0
 0000032,-0.00000029,0.00000037,-0.00000060,-0.00000036,0.00000045,-0.0
 0000015,-0.00000029,0.00000019,0.00000103,0.00000079,-0.00000021,0.000
 00103,0.00000106,0.00000034,-0.00000071,-0.00000080\\\@


 YOU CAN WIPE THE SLATE CLEAN, BUT YOU'LL STILL
 HAVE TO EAT A LITTLE CHALK DUST.
 Job cpu time:       0 days  5 hours 51 minutes 11.6 seconds.
 File lengths (MBytes):  RWF=   1011 Int=      0 D2E=      0 Chk=     22 Scr=      1
 Normal termination of Gaussian 09 at Mon Sep 16 21:28:09 2019.
