 Entering Gaussian System, Link 0=g09
 Input=nmrcom/grandilobalide_revised_4_NMR.com
 Output=nmrcom/grandilobalide_revised_4_NMR.log
 Initial command:
 /cm/shared/apps/Gaussian09/g09/l1.exe "/local/Gau-74379.inp" -scrdir="/local/"
 Entering Link 1 = /cm/shared/apps/Gaussian09/g09/l1.exe PID=     74380.
  
 Copyright (c) 1988,1990,1992,1993,1995,1998,2003,2009,2013,
            Gaussian, Inc.  All Rights Reserved.
  
 This is part of the Gaussian(R) 09 program.  It is based on
 the Gaussian(R) 03 system (copyright 2003, Gaussian, Inc.),
 the Gaussian(R) 98 system (copyright 1998, Gaussian, Inc.),
 the Gaussian(R) 94 system (copyright 1995, Gaussian, Inc.),
 the Gaussian 92(TM) system (copyright 1992, Gaussian, Inc.),
 the Gaussian 90(TM) system (copyright 1990, Gaussian, Inc.),
 the Gaussian 88(TM) system (copyright 1988, Gaussian, Inc.),
 the Gaussian 86(TM) system (copyright 1986, Carnegie Mellon
 University), and the Gaussian 82(TM) system (copyright 1983,
 Carnegie Mellon University). Gaussian is a federally registered
 trademark of Gaussian, Inc.
  
 This software contains proprietary and confidential information,
 including trade secrets, belonging to Gaussian, Inc.
  
 This software is provided under written license and may be
 used, copied, transmitted, or stored only in accord with that
 written license.
  
 The following legend is applicable only to US Government
 contracts under FAR:
  
                    RESTRICTED RIGHTS LEGEND
  
 Use, reproduction and disclosure by the US Government is
 subject to restrictions as set forth in subparagraphs (a)
 and (c) of the Commercial Computer Software - Restricted
 Rights clause in FAR 52.227-19.
  
 Gaussian, Inc.
 340 Quinnipiac St., Bldg. 40, Wallingford CT 06492
  
  
 ---------------------------------------------------------------
 Warning -- This program may not be used in any manner that
 competes with the business of Gaussian, Inc. or will provide
 assistance to any competitor of Gaussian, Inc.  The licensee
 of this program is prohibited from giving any competitor of
 Gaussian, Inc. access to this program.  By using this program,
 the user acknowledges that Gaussian, Inc. is engaged in the
 business of creating and licensing software in the field of
 computational chemistry and represents and warrants to the
 licensee that it is not a competitor of Gaussian, Inc. and that
 it will not use this program in any manner prohibited above.
 ---------------------------------------------------------------
  

 Cite this work as:
 Gaussian 09, Revision D.01,
 M. J. Frisch, G. W. Trucks, H. B. Schlegel, G. E. Scuseria, 
 M. A. Robb, J. R. Cheeseman, G. Scalmani, V. Barone, B. Mennucci, 
 G. A. Petersson, H. Nakatsuji, M. Caricato, X. Li, H. P. Hratchian, 
 A. F. Izmaylov, J. Bloino, G. Zheng, J. L. Sonnenberg, M. Hada, 
 M. Ehara, K. Toyota, R. Fukuda, J. Hasegawa, M. Ishida, T. Nakajima, 
 Y. Honda, O. Kitao, H. Nakai, T. Vreven, J. A. Montgomery, Jr., 
 J. E. Peralta, F. Ogliaro, M. Bearpark, J. J. Heyd, E. Brothers, 
 K. N. Kudin, V. N. Staroverov, T. Keith, R. Kobayashi, J. Normand, 
 K. Raghavachari, A. Rendell, J. C. Burant, S. S. Iyengar, J. Tomasi, 
 M. Cossi, N. Rega, J. M. Millam, M. Klene, J. E. Knox, J. B. Cross, 
 V. Bakken, C. Adamo, J. Jaramillo, R. Gomperts, R. E. Stratmann, 
 O. Yazyev, A. J. Austin, R. Cammi, C. Pomelli, J. W. Ochterski, 
 R. L. Martin, K. Morokuma, V. G. Zakrzewski, G. A. Voth, 
 P. Salvador, J. J. Dannenberg, S. Dapprich, A. D. Daniels, 
 O. Farkas, J. B. Foresman, J. V. Ortiz, J. Cioslowski, 
 and D. J. Fox, Gaussian, Inc., Wallingford CT, 2013.
 
 ******************************************
 Gaussian 09:  ES64L-G09RevD.01 24-Apr-2013
                17-Sep-2019 
 ******************************************
 %Chk=grandilobalide_revised_4_NMR
 %NoSave
 %mem=26GB
 %NProcShared=8
 Will use up to    8 processors via shared memory.
 ----------------------------------------------------------
 #T nmr(giao,spinspin,mixed)wb97xd/6-311g(d,p) maxdisk=50GB
 ----------------------------------------------------------
 ----------------------------
 grandilobalide_revised_4 NMR
 ----------------------------
 Symbolic Z-matrix:
 Charge =  0 Multiplicity = 1
 C                     1.43313   0.55482   0.2557 
 C                     1.32308  -0.39022  -0.83786 
 C                     0.02455  -0.96633  -1.27704 
 C                    -1.24138  -0.35901  -0.58465 
 C                    -0.96043   0.01311   0.89417 
 C                     0.16554   1.05962   0.89956 
 C                    -2.22961  -1.56248  -0.48797 
 C                    -1.82074  -2.2379    0.8605 
 C                    -0.71785  -1.36945   1.50875 
 C                     2.73627   0.26721   0.93335 
 C                     3.33045  -0.86048   0.0903 
 O                     2.42884  -1.24628  -0.87523 
 C                    -0.28313   2.29441   0.11414 
 C                    -2.15426   0.65304   1.62516 
 C                    -1.74541   0.88178  -1.30399 
 C                    -3.72562  -1.28099  -0.60425 
 O                     1.63653   0.94214  -1.12845 
 O                     4.38951  -1.38204   0.20691 
 O                     0.08895   3.39585   0.39327 
 O                    -1.09183   2.11306  -0.9444 
 H                     0.07925  -2.03364  -1.05855 
 H                    -0.08369  -0.87779  -2.36163 
 H                     0.37457   1.41421   1.91001 
 H                    -1.9996   -2.24476  -1.31081 
 H                    -1.48263  -3.26452   0.71007 
 H                    -2.69159  -2.29823   1.51749 
 H                    -0.78688  -1.3586    2.59876 
 H                     0.27349  -1.75223   1.25452 
 H                     3.42005   1.1165    0.94257 
 H                     2.61269  -0.08481   1.96019 
 H                    -2.54121   1.5435    1.12673 
 H                    -2.97961  -0.04255   1.76303 
 H                    -1.82441   0.96008   2.62122 
 H                    -1.62884   0.80231  -2.3859 
 H                    -2.80379   1.0411   -1.09242 
 H                    -4.27747  -2.21467  -0.4694 
 H                    -3.98568  -0.89797  -1.59414 
 H                    -4.09834  -0.57251   0.13613 
 
                    Distance matrix (angstroms):
                    1          2          3          4          5
     1  C    0.000000
     2  C    1.449510   0.000000
     3  C    2.578241   1.486939   0.000000
     4  C    2.948606   2.577116   1.565502   0.000000
     5  C    2.535787   2.894306   2.577527   1.550593   0.000000
     6  C    1.508697   2.541763   2.976905   2.488941   1.537208
     7  C    4.295547   3.757428   2.461556   1.560226   2.450233
     8  C    4.330441   4.022676   3.096936   2.440153   2.410043
     9  C    3.146372   3.260496   2.911058   2.382728   1.532323
    10  C    1.496691   2.359338   3.709565   4.303267   3.705620
    11  C    2.372813   2.261006   3.579082   4.648507   4.452075
    12  O    2.348276   1.398908   2.453662   3.787105   4.025415
    13  C    2.447800   3.270078   3.558437   2.906402   2.504291
    14  C    3.841151   4.387109   3.973953   2.596317   1.539183
    15  C    3.555650   3.354231   2.559094   1.520212   2.490523
    16  C    5.542787   5.132004   3.823011   2.649891   3.400926
    17  O    1.451642   1.399241   2.502569   3.204849   3.420277
    18  O    3.534679   3.387951   4.629017   5.777542   5.571403
    19  O    3.145977   4.168099   4.671479   4.101837   3.577009
    20  O    3.200586   3.479874   3.292354   2.502577   2.794166
    21  H    3.203189   2.072843   1.090815   2.184723   3.013844
    22  H    3.347168   2.130400   1.093569   2.183352   3.487497
    23  H    2.143793   3.421464   3.993344   3.461061   2.185684
    24  H    4.698435   3.834480   2.394303   2.158302   3.322626
    25  H    4.826537   4.304609   3.391430   3.190057   3.324070
    26  H    5.171588   5.030478   4.118335   3.206662   2.954276
    27  H    3.752276   4.147293   3.979209   3.367474   2.194844
    28  H    2.768556   2.708274   2.662400   2.760147   2.183762
    29  H    2.176026   3.136457   4.560073   5.122341   4.517558
    30  H    2.169277   3.096032   4.237358   4.626577   3.730030
    31  H    4.187069   4.746744   4.319774   2.870180   2.212474
    32  H    4.701194   5.039710   4.372685   2.938239   2.198893
    33  H    4.046174   4.867775   4.725052   3.515329   2.150791
    34  H    4.051543   3.540116   2.662961   2.177906   3.439257
    35  H    4.472741   4.375447   3.473233   2.158533   2.898500
    36  H    6.388025   5.901744   4.551701   3.560146   4.221982
    37  H    5.907291   5.386350   4.023327   2.973343   4.021686
    38  H    5.646448   5.511234   4.376109   2.954210   3.280869
                    6          7          8          9         10
     6  C    0.000000
     7  C    3.812797   0.000000
     8  C    3.849733   1.562604   0.000000
     9  C    2.655531   2.511884   1.546218   0.000000
    10  C    2.690292   5.479768   5.200684   3.865310   0.000000
    11  C    3.789237   5.633960   5.387504   4.319694   1.528222
    12  O    3.686404   4.685205   4.696269   3.949702   2.378258
    13  C    1.530645   4.361986   4.843867   3.944325   3.727913
    14  C    2.464402   3.062596   3.008893   2.483399   4.954260
    15  C    2.922157   2.621974   3.797771   3.746382   5.046659
    16  C    4.783418   1.526696   2.586457   3.676859   6.820347
    17  O    2.508079   4.650852   5.101104   4.223903   2.432279
    18  O    4.927813   6.657939   6.302917   5.270673   2.445596
    19  O    2.391684   5.544128   5.966933   4.960165   4.133802
    20  O    2.467972   3.874592   4.766524   4.276166   4.646222
    21  H    3.661958   2.424539   2.708212   2.769033   4.039969
    22  H    3.801453   2.929920   3.905045   3.952686   4.485537
    23  H    1.091069   4.625231   4.388476   3.017140   2.801264
    24  H    4.526868   1.093383   2.178682   3.218540   5.811601
    25  H    4.631472   2.211377   1.091282   2.194101   5.506542
    26  H    4.451985   2.185540   1.092542   2.181366   6.031936
    27  H    3.105187   3.413346   2.205347   1.092249   4.222486
    28  H    2.836220   3.055774   2.185609   1.092658   3.201024
    29  H    3.255284   6.414204   6.222901   4.860315   1.090385
    30  H    2.902272   5.623598   5.049786   3.598133   1.092512
    31  H    2.759027   3.514463   3.858617   3.457721   5.433048
    32  H    3.442726   2.817744   2.641420   2.634556   5.784079
    33  H    2.633237   4.024240   3.650638   2.808691   4.912103
    34  H    3.752372   3.091165   4.451829   4.551341   5.509803
    35  H    3.575651   2.733798   3.941077   4.114358   5.949359
    36  H    5.686422   2.149283   2.793692   4.159131   7.570992
    37  H    5.223350   2.179214   3.536617   4.530887   7.275331
    38  H    4.628971   2.204923   2.913028   3.734559   6.931993
                   11         12         13         14         15
    11  C    0.000000
    12  O    1.376222   0.000000
    13  C    4.797058   4.568377   0.000000
    14  C    5.893093   5.555550   2.911767   0.000000
    15  C    5.544710   4.704976   2.478890   2.966378   0.000000
    16  C    7.102633   6.160523   5.015012   3.343638   3.014709
    17  O    2.757562   2.341167   2.656643   4.694257   3.387028
    18  O    1.186266   2.243582   5.946287   6.998130   6.711545
    19  O    5.358674   5.351030   1.195630   3.751339   3.544874
    20  O    5.428539   4.866729   1.344393   3.140542   1.439627
    21  H    3.642322   2.484782   4.498725   4.405575   3.448081
    22  H    4.203403   2.942444   4.028901   4.746070   2.641207
    23  H    4.150032   4.365293   2.105335   2.656220   3.886849
    24  H    5.682325   4.560461   5.057747   4.128083   3.136859
    25  H    5.415647   4.678248   5.718001   4.078691   4.617057
    26  H    6.353652   5.748950   5.372369   3.001717   4.355278
    27  H    4.846946   4.735191   4.446521   2.619989   4.601038
    28  H    3.390522   3.072024   4.240933   3.437535   4.190451
    29  H    2.154722   3.141591   3.973311   5.635034   5.637729
    30  H    2.147860   3.069588   4.177834   4.835337   5.530114
    31  H    6.428812   6.040866   2.586138   1.091368   2.641889
    32  H    6.579051   6.136834   3.930807   1.088146   3.432826
    33  H    6.024331   5.931552   3.231321   1.093257   3.926788
    34  H    5.787143   4.789954   3.207419   4.048075   1.091066
    35  H    6.530216   5.714867   3.062734   2.820940   1.091021
    36  H    7.747746   6.788011   6.052031   4.137503   4.086061
    37  H    7.507633   6.464076   5.178652   4.015421   2.875853
    38  H    7.434512   6.639345   4.772373   2.738362   3.118524
                   16         17         18         19         20
    16  C    0.000000
    17  O    5.828362   0.000000
    18  O    8.156194   3.842379   0.000000
    19  O    6.117097   3.275871   6.430994   0.000000
    20  O    4.309541   2.974705   6.601987   2.197532   0.000000
    21  H    3.905111   3.359362   4.539199   5.620254   4.310402
    22  H    4.063824   2.791418   5.182772   5.087559   3.459778
    23  H    5.513367   3.323802   5.180663   2.511763   3.284256
    24  H    2.099338   4.838497   6.623329   6.251593   4.466417
    25  H    3.269987   5.550249   6.186989   6.850597   5.639881
    26  H    2.570170   6.019435   7.259398   6.435665   5.299013
    27  H    4.347588   5.005842   5.702318   5.313762   4.969846
    28  H    4.435082   3.846564   4.263346   5.222882   4.651852
    29  H    7.694231   2.738693   2.779163   4.073489   4.991066
    30  H    6.941282   3.398119   2.813155   4.575966   5.195255
    31  H    3.518081   4.785495   7.578893   3.299527   2.591261
    32  H    2.773861   5.535259   7.649813   4.807799   3.942149
    33  H    4.363558   5.102794   7.065916   3.815457   3.818331
    34  H    3.451216   3.501915   6.907575   4.171459   2.020987
    35  H    2.545619   4.441572   7.700868   4.014986   2.025298
    36  H    1.092922   6.736115   8.733107   7.161548   5.394736
    37  H    1.092801   5.933985   8.580321   6.244145   4.226448
    38  H    1.090427   6.064823   8.526658   5.774720   4.173596
                   21         22         23         24         25
    21  H    0.000000
    22  H    1.749447   0.000000
    23  H    4.559306   4.869310   0.000000
    24  H    2.104713   2.577511   5.422035   0.000000
    25  H    2.661297   4.133864   5.174896   2.321878   0.000000
    26  H    3.792556   4.885320   4.830902   2.912212   1.745627
    27  H    3.818609   5.033005   3.084127   4.188167   2.771956
    28  H    2.338205   3.737477   3.235157   3.462721   2.380626
    29  H    5.008874   5.212584   3.209283   6.763754   6.579026
    30  H    4.396483   5.155323   2.694211   6.052938   5.333381
    31  H    4.943498   4.906189   3.021920   4.537164   4.940772
    32  H    4.613285   5.108509   3.659822   3.906235   3.705504
    33  H    5.111455   5.588978   2.355332   5.075681   4.649354
    34  H    3.566797   2.282723   4.779429   3.252366   5.113260
    35  H    4.215099   3.562581   4.388142   3.389875   4.851053
    36  H    4.400098   4.791206   6.361749   2.428493   3.210054
    37  H    4.254439   3.976813   6.052856   2.416325   4.144294
    38  H    4.584147   4.738085   5.205828   3.048732   3.797140
                   26         27         28         29         30
    26  H    0.000000
    27  H    2.383267   0.000000
    28  H    3.026371   1.756789   0.000000
    29  H    7.024455   5.154351   4.269399   0.000000
    30  H    5.764594   3.686107   2.958060   1.769332   0.000000
    31  H    3.864482   3.696859   4.335974   5.979361   5.468885
    32  H    2.287213   2.690449   3.710019   6.555317   5.595936
    33  H    3.547784   2.540325   3.691295   5.508784   4.606153
    34  H    5.096977   5.497752   4.837060   6.055467   6.137268
    35  H    4.239729   4.842655   4.772883   6.548510   6.318572
    36  H    2.543563   4.725534   4.888450   8.505416   7.610091
    37  H    3.649332   5.293858   5.194720   8.083179   7.538766
    38  H    2.620161   4.200988   4.664271   7.747853   6.971584
                   31         32         33         34         35
    31  H    0.000000
    32  H    1.764271   0.000000
    33  H    1.757182   1.753917   0.000000
    34  H    3.704094   4.444323   5.013420   0.000000
    35  H    2.290410   3.059219   3.841467   1.763692   0.000000
    36  H    4.436900   3.374356   5.064425   4.448637   3.627659
    37  H    3.930702   3.607565   5.088484   3.012063   2.325633
    38  H    2.807749   2.044318   3.700708   3.788026   2.406013
                   36         37         38
    36  H    0.000000
    37  H    1.756100   0.000000
    38  H    1.759388   1.764210   0.000000
 Framework group  C1[X(C15H18O5)]
 Deg. of freedom   108
                         Standard orientation:                         
 ---------------------------------------------------------------------
 Center     Atomic      Atomic             Coordinates (Angstroms)
 Number     Number       Type             X           Y           Z
 ---------------------------------------------------------------------
      1          6           0        1.433133    0.554823    0.255700
      2          6           0        1.323082   -0.390218   -0.837857
      3          6           0        0.024546   -0.966334   -1.277039
      4          6           0       -1.241375   -0.359010   -0.584654
      5          6           0       -0.960425    0.013113    0.894173
      6          6           0        0.165542    1.059621    0.899562
      7          6           0       -2.229613   -1.562481   -0.487966
      8          6           0       -1.820735   -2.237896    0.860502
      9          6           0       -0.717848   -1.369445    1.508748
     10          6           0        2.736265    0.267210    0.933351
     11          6           0        3.330450   -0.860476    0.090302
     12          8           0        2.428841   -1.246281   -0.875225
     13          6           0       -0.283125    2.294405    0.114144
     14          6           0       -2.154260    0.653039    1.625156
     15          6           0       -1.745405    0.881776   -1.303993
     16          6           0       -3.725622   -1.280993   -0.604251
     17          8           0        1.636532    0.942140   -1.128453
     18          8           0        4.389506   -1.382039    0.206914
     19          8           0        0.088953    3.395848    0.393271
     20          8           0       -1.091828    2.113057   -0.944395
     21          1           0        0.079246   -2.033643   -1.058551
     22          1           0       -0.083685   -0.877788   -2.361631
     23          1           0        0.374570    1.414212    1.910010
     24          1           0       -1.999602   -2.244759   -1.310814
     25          1           0       -1.482628   -3.264516    0.710065
     26          1           0       -2.691585   -2.298231    1.517486
     27          1           0       -0.786878   -1.358603    2.598760
     28          1           0        0.273487   -1.752229    1.254516
     29          1           0        3.420045    1.116503    0.942565
     30          1           0        2.612690   -0.084812    1.960187
     31          1           0       -2.541206    1.543502    1.126726
     32          1           0       -2.979612   -0.042551    1.763033
     33          1           0       -1.824414    0.960075    2.621219
     34          1           0       -1.628844    0.802307   -2.385900
     35          1           0       -2.803791    1.041095   -1.092421
     36          1           0       -4.277471   -2.214671   -0.469395
     37          1           0       -3.985683   -0.897972   -1.594139
     38          1           0       -4.098341   -0.572507    0.136126
 ---------------------------------------------------------------------
 Rotational constants (GHZ):      0.5758458      0.3371698      0.2714897
 Converting basis for Fermi contact spin-spin IFCMod=1.
 AO basis functions are being uncontracted.
   876 basis functions,   896 primitive gaussians,   896 cartesian basis functions
    74 alpha electrons       74 beta electrons
       nuclear repulsion energy      1788.7112971938 Hartrees.
 NAtoms=   38 NActive=   38 NUniq=   38 SFac= 1.00D+00 NAtFMM=   60 NAOKFM=F Big=F
 Nuclear repulsion after empirical dispersion term =     1788.6697046749 Hartrees.
 ExpMin= 1.03D-01 ExpMax= 7.73D+04 ExpMxC= 7.73D+04 IAcc=4 IRadAn=    199590 AccDes= 0.00D+00
 Harris functional with IExCor= 4639 and IRadAn=  199590 diagonalized for initial guess.
 HarFok:  IExCor= 4639 AccDes= 0.00D+00 IRadAn=    199590 IDoV= 1 UseB2=F ITyADJ=14
 ICtDFT=  3500011 ScaDFX=  1.000000  1.000000  1.000000  1.000000
 FoFCou: FMM=F IPFlag=           0 FMFlag=      100000 FMFlg1=           0
         NFxFlg=           0 DoJE=T BraDBF=F KetDBF=T FulRan=T
         wScrn=  0.000000 ICntrl=     500 IOpCl=  0 I1Cent=   200000004 NGrid=           0
         NMat0=    1 NMatS0=      1 NMatT0=    0 NMatD0=    1 NMtDS0=    0 NMtDT0=    0
 Petite list used in FoFCou.
 Integral accuracy reduced to 1.0D-05 until final iterations.
 Initial convergence to 1.0D-05 achieved.  Increase integral accuracy.
 SCF Done:  E(RwB97XD) =  -958.548467313     A.U. after   14 cycles
            NFock= 14  Conv=0.70D-08     -V/T= 2.0044
 DoSCS=F DFT=T ScalE2(SS,OS)=  1.000000  1.000000
 NROrb=    876 NOA=    74 NOB=    74 NVA=   802 NVB=   802

 **** Warning!!: The largest alpha MO coefficient is  0.24219892D+02

          IDoAtm=11111111111111111111111111111111111111
          Differentiating once with respect to Fermi-contact.
          Electric field/nuclear overlap derivatives assumed to be zero.
 Fermi Contact (FC) contribution to K (Hz):
                1             2             3             4             5 
      1  0.123400D+11
      2  0.127187D+02  0.123400D+11
      3 -0.466250D-01  0.280265D+02  0.123400D+11
      4  0.111162D+01 -0.198826D+00  0.164120D+02  0.123400D+11
      5 -0.494731D+00  0.262448D+01 -0.293788D+00  0.149800D+02  0.123400D+11
      6  0.225705D+02 -0.487419D+00  0.587824D+00 -0.669161D+00  0.154515D+02
      7 -0.132007D+00  0.247514D+01  0.116540D+01  0.163369D+02  0.141989D+01
      8 -0.591270D-01 -0.787149D-01 -0.795447D-01  0.109589D+01  0.109591D+01
      9  0.565758D+00 -0.221644D-01  0.682672D+00  0.148481D+01  0.164168D+02
     10  0.232227D+02 -0.320141D+00 -0.854493D-01  0.200781D-01  0.285329D+00
     11  0.190748D+00  0.166608D+01  0.123516D+01 -0.482186D-01 -0.946555D-01
     12 -0.358076D+00 -0.235728D+02  0.839379D+01  0.157325D+01 -0.544393D-01
     13 -0.223412D+01  0.389275D+00 -0.101678D+00  0.201780D+01 -0.963079D+00
     14  0.243798D+01 -0.188147D+00  0.106427D+01 -0.631413D-01  0.167882D+02
     15 -0.516854D-01 -0.565541D-01  0.625459D+00  0.180583D+02 -0.212859D+00
     16 -0.308542D-02  0.549300D+00  0.160627D+01 -0.356317D+00 -0.385071D-01
     17 -0.235601D+02 -0.264481D+02  0.307041D+01 -0.667284D-01 -0.376257D-01
     18  0.647066D+00  0.483087D+00  0.747356D-01  0.294793D-01  0.129296D-01
     19  0.498763D+00  0.105547D+00  0.278898D-02 -0.946322D-01  0.772616D+00
     20 -0.388463D+00 -0.548099D-01 -0.540623D-01 -0.159673D+00 -0.948182D+00
     21 -0.408876D-02 -0.906536D+00  0.147687D+02 -0.510110D+00  0.169032D-01
     22  0.496606D+00 -0.111105D+01  0.153116D+02 -0.419242D+00  0.374062D+00
     23 -0.527338D+00  0.268973D+00 -0.264152D-01  0.530306D+00 -0.318877D+00
     24 -0.673153D-02  0.184847D+00  0.104925D+01 -0.487331D+00  0.570732D+00
     25 -0.255948D-02  0.131330D-01 -0.795458D-02  0.300313D+00  0.698216D+00
     26  0.135444D-01 -0.462898D-02 -0.464585D-01  0.152610D+00  0.223769D-01
     27 -0.103632D-01 -0.396858D-02  0.692390D-01  0.783116D+00 -0.308948D+00
     28 -0.846272D-02  0.135290D-02  0.831529D-01  0.523405D-01 -0.463338D+00
     29 -0.816601D+00  0.582321D+00  0.562127D-01  0.447195D-01 -0.450274D-01
     30 -0.971646D-01 -0.321107D-02  0.308782D-01 -0.153243D-03 -0.206749D-01
     31 -0.334405D-01  0.307564D-02 -0.303500D-01  0.205576D+00 -0.397822D+00
     32  0.356127D+00  0.575950D-02 -0.282258D-01  0.781732D-01 -0.372672D+00
     33  0.453579D-01 -0.172623D-02  0.101355D+00  0.842500D+00 -0.494373D+00
     34  0.516811D-02 -0.198863D-01  0.685267D+00 -0.345264D+00  0.609686D+00
     35  0.227749D-01 -0.375873D-01  0.105701D+01 -0.284139D+00  0.507540D-01
     36  0.105502D-02  0.403338D-01 -0.482938D-01  0.102855D+01 -0.352375D-01
     37 -0.770190D-03  0.490323D-02 -0.364951D-01  0.968506D-01  0.393226D-02
     38 -0.186887D-02 -0.367639D-02  0.178118D-01  0.209701D+00 -0.721667D-02
                6             7             8             9            10 
      6  0.123400D+11
      7  0.104623D+01  0.123400D+11
      8  0.173152D+01  0.154607D+02  0.123400D+11
      9 -0.118289D+00  0.289282D-01  0.155953D+02  0.123400D+11
     10  0.229392D+01 -0.718604D-02  0.216045D-01 -0.541278D-01  0.123400D+11
     11  0.174059D+01  0.413467D-01 -0.232507D-02  0.226549D-02  0.258308D+02
     12 -0.131639D+00  0.931130D-01  0.137832D-02  0.132608D-01  0.355402D+01
     13  0.260806D+02 -0.161918D+00  0.189161D+00  0.168052D+01  0.597279D+00
     14  0.123113D+01  0.224094D+00  0.340083D+00  0.591385D+00  0.106618D+00
     15  0.505365D-01  0.136526D+01  0.124749D+01  0.127288D+01  0.444789D-03
     16 -0.989002D-02  0.167829D+02  0.165832D+00  0.538617D+00  0.809660D-02
     17  0.244857D+01  0.844945D-01 -0.647973D-02 -0.567376D-01  0.310047D+01
     18  0.168310D+00  0.287819D-02  0.364433D-03 -0.158574D-02  0.251206D+01
     19  0.362973D+01  0.127069D+00  0.503408D-01  0.193982D+00  0.641739D-02
     20  0.335511D+01  0.313931D+00 -0.126374D+00 -0.336868D-01  0.175599D+00
     21  0.657403D-02  0.795608D+00 -0.121112D-01  0.433182D-01 -0.104024D-01
     22 -0.732222D-01  0.407538D-01 -0.119947D-01  0.303899D-01  0.366926D-01
     23  0.159089D+02  0.481428D-01 -0.216443D-01  0.127757D+00  0.388194D+00
     24  0.648952D-01  0.151168D+02 -0.335112D+00  0.239426D+00  0.150091D-02
     25  0.120369D-01 -0.256545D+00  0.151857D+02 -0.286900D+00 -0.542032D-03
     26 -0.197002D-01 -0.467123D+00  0.148827D+02 -0.457276D+00  0.217367D-02
     27  0.220557D-01  0.656833D+00 -0.199933D+00  0.152903D+02 -0.149780D-02
     28  0.330222D+00  0.100150D-02 -0.467292D+00  0.146360D+02  0.456162D-01
     29 -0.124720D-01 -0.499469D-02  0.196783D-02  0.242402D-02  0.165164D+02
     30  0.161310D+00 -0.217040D-02  0.455849D-02  0.102576D-01  0.149860D+02
     31  0.144248D+00 -0.132254D-01  0.225107D-01  0.111517D+01  0.558910D-03
     32  0.126285D+01 -0.311992D-02  0.235759D-01  0.372924D+00  0.219645D-01
     33  0.555498D+00 -0.866171D-02 -0.208797D-01  0.244870D+00 -0.196320D-02
     34 -0.984677D-03  0.105573D-02  0.233695D-01  0.636865D-01  0.689296D-02
     35 -0.144354D-01  0.339525D+00 -0.242586D-01 -0.331461D-01  0.527439D-02
     36  0.279595D-01 -0.436704D+00  0.359659D+00 -0.915198D-02 -0.422733D-03
     37 -0.218889D-02 -0.377157D+00  0.136874D+01  0.755673D-01  0.109566D-03
     38  0.142183D-01 -0.541008D+00  0.271997D+00  0.391392D-02 -0.442404D-03
               11            12            13            14            15 
     11  0.123400D+11
     12 -0.247542D+02  0.123400D+11
     13  0.290231D+00  0.322635D-01  0.123400D+11
     14  0.208558D-01 -0.165824D-01  0.613293D+00  0.123400D+11
     15  0.909921D-02  0.843568D-01 -0.962261D+00  0.100582D+01  0.123400D+11
     16  0.172031D-02  0.102339D+00 -0.670233D-02  0.438063D+00  0.197928D+01
     17 -0.122624D+00  0.247508D+01  0.943064D+00  0.188489D+00 -0.233243D-01
     18 -0.108807D+02  0.832617D+01  0.184778D-01  0.137533D-01  0.263824D-02
     19  0.432330D-01  0.965253D-02 -0.114581D+02 -0.497828D-01  0.344828D+00
     20  0.189189D-01  0.345799D-01 -0.237534D+02 -0.129905D-01 -0.251020D+02
     21  0.132428D-01  0.486238D+00  0.108157D-04 -0.329105D-01  0.783474D+00
     22  0.361391D-01 -0.159705D+00  0.879018D-02  0.133659D-01  0.692851D+00
     23 -0.375108D-01 -0.450045D-02 -0.944445D+00  0.375412D+00  0.310809D-02
     24  0.145901D-02  0.215069D-01  0.131683D-01 -0.220371D-01  0.460701D-02
     25  0.175374D-03 -0.592066D-03  0.491681D-01  0.100513D-01  0.983474D-02
     26  0.138915D-02  0.101486D-01 -0.391223D-03  0.542976D-01  0.263959D-01
     27 -0.150610D-03  0.109465D-02 -0.439717D-01  0.534156D+00  0.479811D-01
     28  0.548054D-03  0.771687D-02 -0.372123D-01  0.971760D+00 -0.284359D-01
     29 -0.542722D+00  0.990048D-01 -0.220813D-01  0.762427D-04 -0.115751D-02
     30 -0.873176D+00 -0.350396D-01  0.222940D-01  0.302559D-02 -0.444741D-03
     31  0.230928D-02 -0.185802D-02 -0.105021D-01  0.146354D+02  0.399297D-01
     32  0.283705D-02 -0.121755D-02 -0.349602D-02  0.146827D+02 -0.228399D-01
     33 -0.663159D-03 -0.287662D-03 -0.280663D-01  0.144648D+02  0.614887D-01
     34  0.636874D-02  0.238230D-01  0.416691D+00  0.340722D-01  0.174044D+02
     35  0.384108D-02  0.799171D-01  0.174690D+00  0.314596D-01  0.170207D+02
     36  0.666542D-03  0.112812D-01  0.613907D-02  0.142859D-03  0.181732D+00
     37  0.136029D-04 -0.178560D-02  0.668298D-02  0.395175D-01  0.127742D+00
     38 -0.134587D-03 -0.402728D-02  0.565258D-03  0.124099D+00  0.270501D-01
               16            17            18            19            20 
     16  0.123400D+11
     17  0.328494D-01  0.123400D+11
     18  0.294371D-02  0.107206D+00  0.123400D+11
     19  0.195101D-02  0.188449D+00  0.293426D-02  0.123400D+11
     20 -0.157537D-01  0.670255D+00  0.738957D-02  0.120349D+02  0.123400D+11
     21  0.100511D+00  0.718343D+00  0.123243D-02 -0.108265D-02 -0.679991D-02
     22 -0.181947D-01  0.180299D+00 -0.195847D-02 -0.198077D-02 -0.615444D-02
     23 -0.322092D-02  0.243201D+00  0.884435D-02  0.299695D+00 -0.327276D-01
     24 -0.434201D+00  0.119174D-01  0.663964D-03 -0.370696D-03 -0.544717D-02
     25  0.304269D+00  0.116607D-03 -0.100157D-03  0.461883D-02  0.247806D-02
     26  0.100113D+01 -0.553647D-02  0.174303D-03 -0.985358D-03  0.179389D-02
     27 -0.250755D-01 -0.370302D-02  0.423786D-04 -0.354363D-02  0.481056D-01
     28  0.181922D-01 -0.607884D-02  0.858091D-03  0.811195D-03  0.241515D-03
     29  0.402987D-03  0.235326D+00  0.250121D+00  0.361058D-03 -0.365135D-02
     30 -0.290718D-03  0.742867D+00  0.230195D+00 -0.378284D-03 -0.382529D-02
     31 -0.762445D-02 -0.280286D-02  0.883217D-04  0.207432D-01  0.432593D-01
     32  0.150126D+00  0.314786D-01  0.245538D-02  0.712867D-02  0.238854D-01
     33  0.962961D-01  0.584398D-02 -0.234760D-03  0.552668D-02 -0.271244D-02
     34 -0.170166D-01  0.308166D-02  0.101991D-02  0.652428D-01  0.211442D+01
     35  0.475919D-01 -0.386426D-02  0.166905D-02  0.957682D-01  0.140868D+01
     36  0.145040D+02 -0.812743D-03  0.332102D-03  0.177435D-03  0.306799D-02
     37  0.143617D+02 -0.275208D-03 -0.467015D-04  0.496864D-03  0.307717D-01
     38  0.145666D+02  0.217571D-02 -0.126924D-03  0.121776D-02  0.134293D-02
               21            22            23            24            25 
     21  0.123400D+11
     22 -0.511686D+00  0.123400D+11
     23  0.652447D-02  0.168217D-01  0.123400D+11
     24 -0.524050D-02 -0.845301D-02  0.172819D-01  0.123400D+11
     25  0.138291D-02  0.502720D-02 -0.940799D-03  0.304630D+00  0.123400D+11
     26 -0.140949D-02  0.517302D-02  0.932335D-04  0.141004D+00 -0.469481D+00
     27  0.140218D-01  0.125997D-02 -0.315029D-02 -0.164140D-01  0.296905D-01
     28  0.122163D-01  0.175536D-01 -0.665849D-02 -0.707126D-02  0.302223D+00
     29 -0.940919D-03  0.321262D-01 -0.436306D-02 -0.163066D-03 -0.146698D-03
     30 -0.149709D-02 -0.810413D-03 -0.735820D-03  0.301498D-04  0.196200D-03
     31  0.412093D-03  0.261966D-02 -0.442824D-02  0.311640D-02 -0.342625D-02
     32  0.549196D-03  0.158507D-02  0.761390D-02 -0.163194D-02  0.229826D-03
     33 -0.158125D-02  0.224296D-01 -0.617738D-02 -0.236085D-02  0.621540D-02
     34  0.390131D-02 -0.118281D-01  0.257827D-02 -0.344542D-02  0.508065D-03
     35  0.424082D-01  0.828624D-02 -0.596328D-03 -0.646367D-02  0.635161D-02
     36  0.528145D-02  0.448229D-03  0.156867D-02  0.125032D+00 -0.986515D-02
     37  0.107223D-02  0.106736D-02  0.125012D-03  0.135859D+00 -0.910095D-03
     38 -0.157788D-02  0.119039D-02 -0.215127D-03  0.450415D+00 -0.699102D-02
               26            27            28            29            30 
     26  0.123400D+11
     27  0.269480D+00  0.123400D+11
     28  0.305184D+00 -0.407984D+00  0.123400D+11
     29  0.982564D-04 -0.113920D-03  0.286247D-02  0.123400D+11
     30  0.655464D-03  0.103120D-03  0.387662D-02 -0.603131D+00  0.123400D+11
     31 -0.555766D-03  0.259369D-01  0.964292D-01 -0.754016D-05 -0.111762D-03
     32 -0.293532D-02  0.366187D-03  0.949866D-02 -0.960753D-03 -0.527651D-03
     33  0.579318D-02 -0.415056D-02 -0.753237D-02 -0.117684D-03 -0.142023D-03
     34 -0.796178D-03  0.199339D-01 -0.652474D-03 -0.584664D-04  0.176609D-04
     35  0.385506D-04 -0.173700D-02  0.154271D-02 -0.118153D-04 -0.489899D-04
     36 -0.540341D-02 -0.558700D-03  0.275793D-02  0.659907D-04 -0.136131D-04
     37  0.146384D-01  0.672597D-02  0.468193D-02  0.121941D-04  0.607774D-04
     38 -0.890050D-02  0.565486D-03  0.172778D-02  0.915541D-04  0.297309D-04
               31            32            33            34            35 
     31  0.123400D+11
     32 -0.403176D+00  0.123400D+11
     33 -0.443230D+00 -0.448703D+00  0.123400D+11
     34  0.134310D-02 -0.493001D-03 -0.677437D-03  0.123400D+11
     35 -0.113511D-02  0.838066D-03  0.712101D-02 -0.405498D+00  0.123400D+11
     36  0.207765D-02  0.416810D-02  0.498519D-02 -0.693860D-03 -0.406338D-02
     37 -0.937585D-03 -0.226040D-02  0.293960D-03 -0.244680D-03 -0.468686D-02
     38  0.179697D-02 -0.148442D-01  0.577963D-02  0.370103D-02 -0.770001D-02
               36            37            38 
     36  0.123400D+11
     37 -0.456389D+00  0.123400D+11
     38 -0.431549D+00 -0.391312D+00  0.123400D+11
 Fermi Contact (FC) contribution to J (Hz):
                1             2             3             4             5 
      1  0.243533D+11
      2  0.251006D+02  0.243533D+11
      3 -0.920156D-01  0.553111D+02  0.243533D+11
      4  0.219382D+01 -0.392389D+00  0.323895D+02  0.243533D+11
      5 -0.976363D+00  0.517947D+01 -0.579797D+00  0.295635D+02  0.243533D+11
      6  0.445435D+02 -0.961933D+00  0.116009D+01 -0.132061D+01  0.304939D+02
      7 -0.260519D+00  0.488474D+01  0.229994D+01  0.322413D+02  0.280219D+01
      8 -0.116689D+00 -0.155346D+00 -0.156983D+00  0.216277D+01  0.216281D+01
      9  0.111654D+01 -0.437421D-01  0.134727D+01  0.293031D+01  0.323989D+02
     10  0.458305D+02 -0.631807D+00 -0.168636D+00  0.396247D-01  0.563104D+00
     11  0.376446D+00  0.328805D+01  0.243762D+01 -0.951606D-01 -0.186805D+00
     12  0.381058D+00  0.250858D+02 -0.893251D+01 -0.167422D+01  0.579332D-01
     13 -0.440910D+01  0.768244D+00 -0.200663D+00  0.398218D+01 -0.190066D+01
     14  0.481142D+01 -0.371313D+00  0.210036D+01 -0.124611D+00  0.331318D+02
     15 -0.102002D+00 -0.111611D+00  0.123436D+01  0.356384D+02 -0.420083D+00
     16 -0.608916D-02  0.108406D+01  0.317001D+01 -0.703200D+00 -0.759947D-01
     17  0.250722D+02  0.281455D+02 -0.326747D+01  0.710111D-01  0.400405D-01
     18 -0.688595D+00 -0.514092D+00 -0.795322D-01 -0.313713D-01 -0.137594D-01
     19 -0.530774D+00 -0.112321D+00 -0.296798D-02  0.100706D+00 -0.822204D+00
     20  0.413395D+00  0.583277D-01  0.575321D-01  0.169921D+00  0.100904D+01
     21 -0.320841D-01 -0.711350D+01  0.115889D+03 -0.400278D+01  0.132638D+00
     22  0.389682D+01 -0.871830D+01  0.120148D+03 -0.328975D+01  0.293523D+01
     23 -0.413797D+01  0.211060D+01 -0.207278D+00  0.416126D+01 -0.250220D+01
     24 -0.528217D-01  0.145048D+01  0.823333D+01 -0.382404D+01  0.447848D+01
     25 -0.200840D-01  0.103054D+00 -0.624188D-01  0.235652D+01  0.547883D+01
     26  0.106281D+00 -0.363232D-01 -0.364556D+00  0.119751D+01  0.175589D+00
     27 -0.813194D-01 -0.311410D-01  0.543312D+00  0.614503D+01 -0.242429D+01
     28 -0.664061D-01  0.106161D-01  0.652493D+00  0.410711D+00 -0.363577D+01
     29 -0.640779D+01  0.456942D+01  0.441095D+00  0.350909D+00 -0.353326D+00
     30 -0.762441D+00 -0.251970D-01  0.242298D+00 -0.120249D-02 -0.162234D+00
     31 -0.262404D+00  0.241343D-01 -0.238154D+00  0.161314D+01 -0.312167D+01
     32  0.279450D+01  0.451943D-01 -0.221485D+00  0.613418D+00 -0.292432D+01
     33  0.355919D+00 -0.135456D-01  0.795324D+00  0.661101D+01 -0.387930D+01
     34  0.405536D-01 -0.156046D+00  0.537722D+01 -0.270926D+01  0.478415D+01
     35  0.178712D+00 -0.294944D+00  0.829427D+01 -0.222961D+01  0.398262D+00
     36  0.827867D-02  0.316495D+00 -0.378957D+00  0.807090D+01 -0.276505D+00
     37 -0.604360D-02  0.384752D-01 -0.286373D+00  0.759977D+00  0.308560D-01
     38 -0.146649D-01 -0.288483D-01  0.139767D+00  0.164550D+01 -0.566285D-01
                6             7             8             9            10 
      6  0.243533D+11
      7  0.206476D+01  0.243533D+11
      8  0.341719D+01  0.305121D+02  0.243533D+11
      9 -0.233447D+00  0.570904D-01  0.307778D+02  0.243533D+11
     10  0.452710D+01 -0.141818D-01  0.426370D-01 -0.106823D+00  0.243533D+11
     11  0.343509D+01  0.815988D-01 -0.458858D-02  0.447101D-02  0.509778D+02
     12  0.140088D+00 -0.990891D-01 -0.146678D-02 -0.141118D-01 -0.378212D+01
     13  0.514708D+02 -0.319549D+00  0.373313D+00  0.331654D+01  0.117874D+01
     14  0.242967D+01  0.442256D+00  0.671163D+00  0.116711D+01  0.210413D+00
     15  0.997350D-01  0.269437D+01  0.246196D+01  0.251207D+01  0.877803D-03
     16 -0.195182D-01  0.331215D+02  0.327273D+00  0.106297D+01  0.159788D-01
     17 -0.260572D+01 -0.899174D-01  0.689560D-02  0.603790D-01 -0.329946D+01
     18 -0.179112D+00 -0.306291D-02 -0.387823D-03  0.168751D-02 -0.267329D+01
     19 -0.386269D+01 -0.135224D+00 -0.535717D-01 -0.206432D+00 -0.682926D-02
     20 -0.357045D+01 -0.334079D+00  0.134484D+00  0.358488D-01 -0.186870D+00
     21  0.515858D-01  0.624306D+01 -0.950357D-01  0.339913D+00 -0.816267D-01
     22 -0.574567D+00  0.319791D+00 -0.941212D-01  0.238467D+00  0.287924D+00
     23  0.124836D+03  0.377772D+00 -0.169841D+00  0.100250D+01  0.304612D+01
     24  0.509226D+00  0.118620D+03 -0.262959D+01  0.187875D+01  0.117775D-01
     25  0.944524D-01 -0.201308D+01  0.119161D+03 -0.225128D+01 -0.425327D-02
     26 -0.154585D+00 -0.366547D+01  0.116783D+03 -0.358820D+01  0.170566D-01
     27  0.173069D+00  0.515410D+01 -0.156886D+01  0.119982D+03 -0.117531D-01
     28  0.259122D+01  0.785867D-02 -0.366679D+01  0.114847D+03  0.357946D+00
     29 -0.978669D-01 -0.391928D-01  0.154414D-01  0.190211D-01  0.129603D+03
     30  0.126578D+01 -0.170309D-01  0.357700D-01  0.804905D-01  0.117593D+03
     31  0.113190D+01 -0.103778D+00  0.176639D+00  0.875065D+01  0.438571D-02
     32  0.990945D+01 -0.244817D-01  0.184998D+00  0.292630D+01  0.172353D+00
     33  0.435894D+01 -0.679676D-01 -0.163841D+00  0.192147D+01 -0.154050D-01
     34 -0.772667D-02  0.828419D-02  0.183378D+00  0.499742D+00  0.540884D-01
     35 -0.113273D+00  0.266422D+01 -0.190355D+00 -0.260094D+00  0.413877D-01
     36  0.219395D+00 -0.342677D+01  0.282221D+01 -0.718147D-01 -0.331715D-02
     37 -0.171760D-01 -0.295951D+01  0.107404D+02  0.592969D+00  0.859752D-03
     38  0.111570D+00 -0.424524D+01  0.213433D+01  0.307121D-01 -0.347150D-02
               11            12            13            14            15 
     11  0.243533D+11
     12  0.263429D+02  0.708114D+10
     13  0.572778D+00 -0.343342D-01  0.243533D+11
     14  0.411593D-01  0.176467D-01  0.121035D+01  0.243533D+11
     15  0.179575D-01 -0.897709D-01 -0.189905D+01  0.198502D+01  0.243533D+11
     16  0.339507D-02 -0.108907D+00 -0.132272D-01  0.864529D+00  0.390615D+01
     17  0.130494D+00  0.142029D+01 -0.100359D+01 -0.200586D+00  0.248212D-01
     18  0.115790D+02  0.477786D+01 -0.196637D-01 -0.146360D-01 -0.280757D-02
     19 -0.460077D-01  0.553898D-02  0.121934D+02  0.529779D-01 -0.366959D+00
     20 -0.201332D-01  0.198432D-01  0.252779D+02  0.138242D-01  0.267131D+02
     21  0.103915D+00 -0.205740D+01  0.848694D-04 -0.258245D+00  0.614785D+01
     22  0.283580D+00  0.675757D+00  0.689757D-01  0.104881D+00  0.543673D+01
     23 -0.294343D+00  0.190426D-01 -0.741097D+01  0.294582D+01  0.243889D-01
     24  0.114487D-01 -0.910014D-01  0.103331D+00 -0.172923D+00  0.361508D-01
     25  0.137614D-02  0.250519D-02  0.385817D+00  0.788716D-01  0.771723D-01
     26  0.109005D-01 -0.429415D-01 -0.306989D-02  0.426068D+00  0.207126D+00
     27 -0.118182D-02 -0.463176D-02 -0.345042D+00  0.419147D+01  0.376503D+00
     28  0.430053D-02 -0.326522D-01 -0.292002D+00  0.762531D+01 -0.223133D+00
     29 -0.425868D+01 -0.418916D+00 -0.173270D+00  0.598269D-03 -0.908287D-02
     30 -0.685172D+01  0.148262D+00  0.174939D+00  0.237415D-01 -0.348984D-02
     31  0.181207D-01  0.786178D-02 -0.824089D-01  0.114842D+03  0.313324D+00
     32  0.222620D-01  0.515180D-02 -0.274329D-01  0.115213D+03 -0.179223D+00
     33 -0.520374D-02  0.121718D-02 -0.220233D+00  0.113504D+03  0.482496D+00
     34  0.499749D-01 -0.100802D+00  0.326973D+01  0.267361D+00  0.136571D+03
     35  0.301406D-01 -0.338151D+00  0.137077D+01  0.246861D+00  0.133560D+03
     36  0.523029D-02 -0.477338D-01  0.481727D-01  0.112100D-02  0.142603D+01
     37  0.106741D-03  0.755537D-02  0.524407D-01  0.310090D+00  0.100238D+01
     38 -0.105609D-02  0.170405D-01  0.443552D-02  0.973796D+00  0.212260D+00
               16            17            18            19            20 
     16  0.243533D+11
     17 -0.349577D-01  0.708114D+10
     18 -0.313264D-02  0.615187D-01  0.708114D+10
     19 -0.207622D-02  0.108139D+00  0.168379D-02  0.708114D+10
     20  0.167648D-01  0.384617D+00  0.424041D-02  0.690607D+01  0.708114D+10
     21  0.788699D+00 -0.303951D+01 -0.521476D-02  0.458098D-02  0.287723D-01
     22 -0.142772D+00 -0.762893D+00  0.828681D-02  0.838118D-02  0.260411D-01
     23 -0.252742D-01 -0.102905D+01 -0.374229D-01 -0.126809D+01  0.138479D+00
     24 -0.340714D+01 -0.504259D-01 -0.280941D-02  0.156852D-02  0.230485D-01
     25  0.238757D+01 -0.493394D-03  0.423791D-03 -0.195435D-01 -0.104853D-01
     26  0.785580D+01  0.234263D-01 -0.737523D-03  0.416932D-02 -0.759046D-02
     27 -0.196765D+00  0.156685D-01 -0.179315D-03  0.149941D-01 -0.203548D+00
     28  0.142752D+00  0.257212D-01 -0.363082D-02 -0.343239D-02 -0.102192D-02
     29  0.316220D-02 -0.995730D+00 -0.105833D+01 -0.152774D-02  0.154498D-01
     30 -0.228123D-02 -0.314327D+01 -0.974018D+00  0.160062D-02  0.161859D-01
     31 -0.598284D-01  0.118597D-01 -0.373713D-03 -0.877703D-01 -0.183042D+00
     32  0.117802D+01 -0.133195D+00 -0.103894D-01 -0.301633D-01 -0.101066D+00
     33  0.755626D+00 -0.247275D-01  0.993335D-03 -0.233849D-01  0.114771D-01
     34 -0.133528D+00 -0.130394D-01 -0.431552D-02 -0.276060D+00 -0.894668D+01
     35  0.373449D+00  0.163508D-01 -0.706219D-02 -0.405222D+00 -0.596050D+01
     36  0.113812D+03  0.343894D-02 -0.140521D-02 -0.750777D-03 -0.129815D-01
     37  0.112695D+03  0.116448D-02  0.197607D-03 -0.210237D-02 -0.130203D+00
     38  0.114303D+03 -0.920600D-02  0.537050D-03 -0.515268D-02 -0.568229D-02
               21            22            23            24            25 
     21  0.385007D+12
     22 -0.159646D+02  0.385007D+12
     23  0.203563D+00  0.524837D+00  0.385007D+12
     24 -0.163503D+00 -0.263733D+00  0.539194D+00  0.385007D+12
     25  0.431467D-01  0.156848D+00 -0.293529D-01  0.950443D+01  0.385007D+12
     26 -0.439760D-01  0.161398D+00  0.290888D-02  0.439931D+01 -0.146478D+02
     27  0.437479D+00  0.393110D-01 -0.982888D-01 -0.512116D+00  0.926341D+00
     28  0.381147D+00  0.547672D+00 -0.207745D+00 -0.220623D+00  0.942935D+01
     29 -0.293566D-01  0.100234D+01 -0.136127D+00 -0.508765D-02 -0.457696D-02
     30 -0.467091D-01 -0.252848D-01 -0.229575D-01  0.940674D-03  0.612144D-02
     31  0.128573D-01  0.817332D-01 -0.138161D+00  0.972316D-01 -0.106899D+00
     32  0.171349D-01  0.494542D-01  0.237553D+00 -0.509166D-01  0.717055D-02
     33 -0.493348D-01  0.699803D+00 -0.192734D+00 -0.736585D-01  0.193920D+00
     34  0.121721D+00 -0.369037D+00  0.804419D-01 -0.107497D+00  0.158516D-01
     35  0.132313D+01  0.258530D+00 -0.186054D-01 -0.201666D+00  0.198170D+00
     36  0.164781D+00  0.139847D-01  0.489426D-01  0.390101D+01 -0.307792D+00
     37  0.334536D-01  0.333016D-01  0.390036D-02  0.423881D+01 -0.283949D-01
     38 -0.492298D-01  0.371400D-01 -0.671194D-02  0.140529D+02 -0.218119D+00
               26            27            28            29            30 
     26  0.385007D+12
     27  0.840777D+01  0.385007D+12
     28  0.952172D+01 -0.127291D+02  0.385007D+12
     29  0.306559D-02 -0.355429D-02  0.893089D-01  0.385007D+12
     30  0.204504D-01  0.321735D-02  0.120950D+00 -0.188177D+02  0.385007D+12
     31 -0.173399D-01  0.809231D+00  0.300859D+01 -0.235253D-03 -0.348698D-02
     32 -0.915819D-01  0.114250D-01  0.296358D+00 -0.299755D-01 -0.164627D-01
     33  0.180747D+00 -0.129497D+00 -0.235010D+00 -0.367173D-02 -0.443112D-02
     34 -0.248407D-01  0.621936D+00 -0.203571D-01 -0.182415D-02  0.551018D-03
     35  0.120278D-02 -0.541942D-01  0.481323D-01 -0.368638D-03 -0.152848D-02
     36 -0.168586D+00 -0.174314D-01  0.860473D-01  0.205891D-02 -0.424729D-03
     37  0.456719D+00  0.209850D+00  0.146076D+00  0.380455D-03  0.189625D-02
     38 -0.277695D+00  0.176431D-01  0.539065D-01  0.285648D-02  0.927604D-03
               31            32            33            34            35 
     31  0.385007D+12
     32 -0.125791D+02  0.385007D+12
     33 -0.138288D+02 -0.139995D+02  0.385007D+12
     34  0.419048D-01 -0.153816D-01 -0.211360D-01  0.385007D+12
     35 -0.354153D-01  0.261476D-01  0.222175D+00 -0.126515D+02  0.385007D+12
     36  0.648225D-01  0.130045D+00  0.155538D+00 -0.216484D-01 -0.126777D+00
     37 -0.292526D-01 -0.705244D-01  0.917152D-02 -0.763400D-02 -0.146230D+00
     38  0.560653D-01 -0.463138D+00  0.180324D+00  0.115472D+00 -0.240240D+00
               36            37            38 
     36  0.385007D+12
     37 -0.142393D+02  0.385007D+12
     38 -0.134643D+02 -0.122089D+02  0.385007D+12
 End of Minotr F.D. properties file   721 does not exist.
 End of Minotr F.D. properties file   722 does not exist.
 End of Minotr F.D. properties file   788 does not exist.

 **********************************************************************

            Population analysis using the SCF density.

 **********************************************************************

 Orbital symmetries:
       Occupied  (A) (A) (A) (A) (A) (A) (A) (A) (A) (A) (A) (A)
                 (A) (A) (A) (A) (A) (A) (A) (A) (A) (A) (A) (A)
                 (A) (A) (A) (A) (A) (A) (A) (A) (A) (A) (A) (A)
                 (A) (A) (A) (A) (A) (A) (A) (A) (A) (A) (A) (A)
                 (A) (A) (A) (A) (A) (A) (A) (A) (A) (A) (A) (A)
                 (A) (A) (A) (A) (A) (A) (A) (A) (A) (A) (A) (A)
                 (A) (A)
       Virtual   (A) (A) (A) (A) (A) (A) (A) (A) (A) (A) (A) (A)
                 (A) (A) (A) (A) (A) (A) (A) (A) (A) (A) (A) (A)
                 (A) (A) (A) (A) (A) (A) (A) (A) (A) (A) (A) (A)
                 (A) (A) (A) (A) (A) (A) (A) (A) (A) (A) (A) (A)
                 (A) (A) (A) (A) (A) (A) (A) (A) (A) (A) (A) (A)
                 (A) (A) (A) (A) (A) (A) (A) (A) (A) (A) (A) (A)
                 (A) (A) (A) (A) (A) (A) (A) (A) (A) (A) (A) (A)
                 (A) (A) (A) (A) (A) (A) (A) (A) (A) (A) (A) (A)
                 (A) (A) (A) (A) (A) (A) (A) (A) (A) (A) (A) (A)
                 (A) (A) (A) (A) (A) (A) (A) (A) (A) (A) (A) (A)
                 (A) (A) (A) (A) (A) (A) (A) (A) (A) (A) (A) (A)
                 (A) (A) (A) (A) (A) (A) (A) (A) (A) (A) (A) (A)
                 (A) (A) (A) (A) (A) (A) (A) (A) (A) (A) (A) (A)
                 (A) (A) (A) (A) (A) (A) (A) (A) (A) (A) (A) (A)
                 (A) (A) (A) (A) (A) (A) (A) (A) (A) (A) (A) (A)
                 (A) (A) (A) (A) (A) (A) (A) (A) (A) (A) (A) (A)
                 (A) (A) (A) (A) (A) (A) (A) (A) (A) (A) (A) (A)
                 (A) (A) (A) (A) (A) (A) (A) (A) (A) (A) (A) (A)
                 (A) (A) (A) (A) (A) (A) (A) (A) (A) (A) (A) (A)
                 (A) (A) (A) (A) (A) (A) (A) (A) (A) (A) (A) (A)
                 (A) (A) (A) (A) (A) (A) (A) (A) (A) (A) (A) (A)
                 (A) (A) (A) (A) (A) (A) (A) (A) (A) (A) (A) (A)
                 (A) (A) (A) (A) (A) (A) (A) (A) (A) (A) (A) (A)
                 (A) (A) (A) (A) (A) (A) (A) (A) (A) (A) (A) (A)
                 (A) (A) (A) (A) (A) (A) (A) (A) (A) (A) (A) (A)
                 (A) (A) (A) (A) (A) (A) (A) (A) (A) (A) (A) (A)
                 (A) (A) (A) (A) (A) (A) (A) (A) (A) (A) (A) (A)
                 (A) (A) (A) (A) (A) (A) (A) (A) (A) (A) (A) (A)
                 (A) (A) (A) (A) (A) (A) (A) (A) (A) (A) (A) (A)
                 (A) (A) (A) (A) (A) (A) (A) (A) (A) (A) (A) (A)
                 (A) (A) (A) (A) (A) (A) (A) (A) (A) (A) (A) (A)
                 (A) (A) (A) (A) (A) (A) (A) (A) (A) (A) (A) (A)
                 (A) (A) (A) (A) (A) (A) (A) (A) (A) (A) (A) (A)
                 (A) (A) (A) (A) (A) (A) (A) (A) (A) (A) (A) (A)
                 (A) (A) (A) (A) (A) (A) (A) (A) (A) (A) (A) (A)
                 (A) (A) (A) (A) (A) (A) (A) (A) (A) (A) (A) (A)
                 (A) (A) (A) (A) (A) (A) (A) (A) (A) (A) (A) (A)
                 (A) (A) (A) (A) (A) (A) (A) (A) (A) (A) (A) (A)
                 (A) (A) (A) (A) (A) (A) (A) (A) (A) (A) (A) (A)
                 (A) (A) (A) (A) (A) (A) (A) (A) (A) (A) (A) (A)
                 (A) (A) (A) (A) (A) (A) (A) (A) (A) (A) (A) (A)
                 (A) (A) (A) (A) (A) (A) (A) (A) (A) (A) (A) (A)
                 (A) (A) (A) (A) (A) (A) (A) (A) (A) (A) (A) (A)
                 (A) (A) (A) (A) (A) (A) (A) (A) (A) (A) (A) (A)
                 (A) (A) (A) (A) (A) (A) (A) (A) (A) (A) (A) (A)
                 (A) (A) (A) (A) (A) (A) (A) (A) (A) (A) (A) (A)
                 (A) (A) (A) (A) (A) (A) (A) (A) (A) (A) (A) (A)
                 (A) (A) (A) (A) (A) (A) (A) (A) (A) (A) (A) (A)
                 (A) (A) (A) (A) (A) (A) (A) (A) (A) (A) (A) (A)
                 (A) (A) (A) (A) (A) (A) (A) (A) (A) (A) (A) (A)
                 (A) (A) (A) (A) (A) (A) (A) (A) (A) (A) (A) (A)
                 (A) (A) (A) (A) (A) (A) (A) (A) (A) (A) (A) (A)
                 (A) (A) (A) (A) (A) (A) (A) (A) (A) (A) (A) (A)
                 (A) (A) (A) (A) (A) (A) (A) (A) (A) (A) (A) (A)
                 (A) (A) (A) (A) (A) (A) (A) (A) (A) (A) (A) (A)
                 (A) (A) (A) (A) (A) (A) (A) (A) (A) (A) (A) (A)
                 (A) (A) (A) (A) (A) (A) (A) (A) (A) (A) (A) (A)
                 (A) (A) (A) (A) (A) (A) (A) (A) (A) (A) (A) (A)
                 (A) (A) (A) (A) (A) (A) (A) (A) (A) (A) (A) (A)
                 (A) (A) (A) (A) (A) (A) (A) (A) (A) (A) (A) (A)
                 (A) (A) (A) (A) (A) (A) (A) (A) (A) (A) (A) (A)
                 (A) (A) (A) (A) (A) (A) (A) (A) (A) (A) (A) (A)
                 (A) (A) (A) (A) (A) (A) (A) (A) (A) (A) (A) (A)
                 (A) (A) (A) (A) (A) (A) (A) (A) (A) (A) (A) (A)
                 (A) (A) (A) (A) (A) (A) (A) (A) (A) (A) (A) (A)
                 (A) (A) (A) (A) (A) (A) (A) (A) (A) (A) (A) (A)
                 (A) (A) (A) (A) (A) (A) (A) (A) (A) (A)
 The electronic state is 1-A.
 Alpha  occ. eigenvalues --  -19.31236 -19.29585 -19.28819 -19.24973 -19.22923
 Alpha  occ. eigenvalues --  -10.43620 -10.42509 -10.41867 -10.37787 -10.36310
 Alpha  occ. eigenvalues --  -10.33402 -10.33246 -10.33093 -10.32896 -10.32079
 Alpha  occ. eigenvalues --  -10.32033 -10.30862 -10.30715 -10.29959 -10.29772
 Alpha  occ. eigenvalues --   -1.26329  -1.21245  -1.19702  -1.14351  -1.12838
 Alpha  occ. eigenvalues --   -1.00520  -0.93555  -0.90415  -0.90003  -0.86512
 Alpha  occ. eigenvalues --   -0.85816  -0.82406  -0.79525  -0.76483  -0.74645
 Alpha  occ. eigenvalues --   -0.72814  -0.69954  -0.68874  -0.66940  -0.63000
 Alpha  occ. eigenvalues --   -0.62495  -0.60917  -0.60724  -0.59759  -0.59576
 Alpha  occ. eigenvalues --   -0.58101  -0.57336  -0.55551  -0.54454  -0.54231
 Alpha  occ. eigenvalues --   -0.53470  -0.53182  -0.52195  -0.51653  -0.50655
 Alpha  occ. eigenvalues --   -0.50061  -0.49859  -0.48793  -0.48504  -0.47804
 Alpha  occ. eigenvalues --   -0.47263  -0.46416  -0.44596  -0.44430  -0.43596
 Alpha  occ. eigenvalues --   -0.42636  -0.42093  -0.41069  -0.40657  -0.39368
 Alpha  occ. eigenvalues --   -0.38556  -0.37441  -0.37198  -0.35128
 Alpha virt. eigenvalues --    0.06450   0.08044   0.09027   0.10326   0.11356
 Alpha virt. eigenvalues --    0.12400   0.12686   0.13157   0.13736   0.14746
 Alpha virt. eigenvalues --    0.15501   0.16278   0.16825   0.17688   0.17964
 Alpha virt. eigenvalues --    0.18243   0.18964   0.19318   0.20196   0.20655
 Alpha virt. eigenvalues --    0.21667   0.22654   0.23711   0.23916   0.24281
 Alpha virt. eigenvalues --    0.25093   0.26238   0.26593   0.27001   0.27785
 Alpha virt. eigenvalues --    0.28014   0.29116   0.30131   0.31023   0.31447
 Alpha virt. eigenvalues --    0.32945   0.33899   0.34376   0.35374   0.36174
 Alpha virt. eigenvalues --    0.37108   0.38706   0.39805   0.40011   0.40880
 Alpha virt. eigenvalues --    0.41762   0.42835   0.43559   0.44441   0.44836
 Alpha virt. eigenvalues --    0.46869   0.46928   0.47908   0.48963   0.50165
 Alpha virt. eigenvalues --    0.50298   0.50511   0.51701   0.52723   0.53559
 Alpha virt. eigenvalues --    0.54488   0.54596   0.55524   0.55817   0.56512
 Alpha virt. eigenvalues --    0.57015   0.57402   0.58357   0.59027   0.60422
 Alpha virt. eigenvalues --    0.60794   0.61117   0.61219   0.61945   0.62571
 Alpha virt. eigenvalues --    0.62950   0.64017   0.64294   0.64887   0.65319
 Alpha virt. eigenvalues --    0.65733   0.66032   0.66069   0.66704   0.67146
 Alpha virt. eigenvalues --    0.67516   0.67853   0.68540   0.69292   0.69671
 Alpha virt. eigenvalues --    0.70179   0.70958   0.71406   0.71777   0.72220
 Alpha virt. eigenvalues --    0.72620   0.73814   0.74633   0.75021   0.75775
 Alpha virt. eigenvalues --    0.76217   0.77590   0.78619   0.79507   0.81621
 Alpha virt. eigenvalues --    0.82760   0.83125   0.83458   0.85136   0.87832
 Alpha virt. eigenvalues --    0.90147   0.91921   0.93168   0.95135   0.96653
 Alpha virt. eigenvalues --    0.97579   0.98942   1.00686   1.00884   1.01982
 Alpha virt. eigenvalues --    1.03217   1.04524   1.05364   1.08015   1.08108
 Alpha virt. eigenvalues --    1.10347   1.10841   1.11826   1.13552   1.15113
 Alpha virt. eigenvalues --    1.18027   1.19590   1.20498   1.21926   1.24012
 Alpha virt. eigenvalues --    1.25069   1.25745   1.26713   1.28254   1.30403
 Alpha virt. eigenvalues --    1.31430   1.32622   1.33194   1.35249   1.37023
 Alpha virt. eigenvalues --    1.38716   1.39449   1.41583   1.43215   1.43547
 Alpha virt. eigenvalues --    1.44208   1.44794   1.45703   1.46649   1.47632
 Alpha virt. eigenvalues --    1.48784   1.49931   1.50467   1.51258   1.51596
 Alpha virt. eigenvalues --    1.52496   1.53483   1.54263   1.55352   1.56593
 Alpha virt. eigenvalues --    1.56873   1.57594   1.58404   1.59421   1.60190
 Alpha virt. eigenvalues --    1.61306   1.62089   1.62147   1.62750   1.63270
 Alpha virt. eigenvalues --    1.64536   1.64798   1.65681   1.66381   1.67485
 Alpha virt. eigenvalues --    1.67857   1.68570   1.69532   1.70126   1.70996
 Alpha virt. eigenvalues --    1.72066   1.72304   1.73235   1.73949   1.74690
 Alpha virt. eigenvalues --    1.75745   1.76265   1.77105   1.77950   1.78567
 Alpha virt. eigenvalues --    1.79533   1.80368   1.80651   1.81677   1.82409
 Alpha virt. eigenvalues --    1.82932   1.83982   1.84322   1.86143   1.87128
 Alpha virt. eigenvalues --    1.88263   1.88823   1.89053   1.89759   1.90228
 Alpha virt. eigenvalues --    1.91411   1.92471   1.92918   1.93974   1.96011
 Alpha virt. eigenvalues --    1.97240   1.99312   1.99536   2.00735   2.01321
 Alpha virt. eigenvalues --    2.03486   2.03663   2.05071   2.05736   2.07131
 Alpha virt. eigenvalues --    2.09617   2.10152   2.11614   2.11810   2.14091
 Alpha virt. eigenvalues --    2.15287   2.15872   2.16498   2.19372   2.19957
 Alpha virt. eigenvalues --    2.20937   2.22376   2.22608   2.23738   2.24491
 Alpha virt. eigenvalues --    2.25717   2.27812   2.29035   2.29946   2.30516
 Alpha virt. eigenvalues --    2.30777   2.32676   2.34747   2.35763   2.36143
 Alpha virt. eigenvalues --    2.36915   2.38850   2.39484   2.39692   2.42013
 Alpha virt. eigenvalues --    2.43788   2.43918   2.45918   2.47223   2.48466
 Alpha virt. eigenvalues --    2.50990   2.51593   2.52196   2.53563   2.55250
 Alpha virt. eigenvalues --    2.56223   2.57562   2.57929   2.58241   2.59601
 Alpha virt. eigenvalues --    2.61327   2.62708   2.66784   2.67180   2.67655
 Alpha virt. eigenvalues --    2.68498   2.69333   2.70125   2.71204   2.72429
 Alpha virt. eigenvalues --    2.73639   2.74050   2.75689   2.77370   2.78523
 Alpha virt. eigenvalues --    2.78873   2.79373   2.81777   2.82710   2.84102
 Alpha virt. eigenvalues --    2.85383   2.86163   2.87517   2.89654   2.90524
 Alpha virt. eigenvalues --    2.91474   2.92689   2.93927   2.94545   2.96055
 Alpha virt. eigenvalues --    2.97021   2.98179   2.99585   3.02140   3.03644
 Alpha virt. eigenvalues --    3.05092   3.06151   3.07883   3.11010   3.11228
 Alpha virt. eigenvalues --    3.13059   3.14582   3.15456   3.16676   3.17576
 Alpha virt. eigenvalues --    3.19375   3.20933   3.22537   3.23839   3.24536
 Alpha virt. eigenvalues --    3.28659   3.30123   3.31410   3.32597   3.35196
 Alpha virt. eigenvalues --    3.37758   3.40068   3.40429   3.42162   3.44089
 Alpha virt. eigenvalues --    3.44648   3.46238   3.46515   3.48043   3.48790
 Alpha virt. eigenvalues --    3.49284   3.50378   3.50807   3.51161   3.51808
 Alpha virt. eigenvalues --    3.53745   3.54498   3.57890   3.59595   3.60738
 Alpha virt. eigenvalues --    3.61682   3.63187   3.67865   3.68832   3.71229
 Alpha virt. eigenvalues --    3.74474   3.75373   3.78275   3.85036   3.85247
 Alpha virt. eigenvalues --    3.86752   3.88024   3.90357   3.92536   3.95619
 Alpha virt. eigenvalues --    3.96392   3.98310   4.00293   4.01920   4.05267
 Alpha virt. eigenvalues --    4.06379   4.08321   4.14277   4.17862   4.19373
 Alpha virt. eigenvalues --    4.21559   4.24123   4.31354   4.38121   4.63145
 Alpha virt. eigenvalues --    4.64309   4.66596   4.71277   4.72640   4.74695
 Alpha virt. eigenvalues --    4.79312   4.95271   4.99805   5.15791   5.20741
 Alpha virt. eigenvalues --    5.24187   5.25343   5.44243   5.53562   6.16373
 Alpha virt. eigenvalues --    6.25743   6.36684   6.46799   6.52421   9.11973
 Alpha virt. eigenvalues --    9.20049   9.23702   9.26649   9.28357   9.29360
 Alpha virt. eigenvalues --    9.33934   9.37667   9.45818   9.48012   9.51122
 Alpha virt. eigenvalues --    9.56308   9.63635   9.64808   9.66720   9.67911
 Alpha virt. eigenvalues --    9.69587   9.71141   9.71717   9.71910   9.73675
 Alpha virt. eigenvalues --    9.75079   9.75467   9.77866   9.78236   9.78362
 Alpha virt. eigenvalues --    9.79480   9.82184   9.83328   9.85809   9.89164
 Alpha virt. eigenvalues --    9.90006   9.93791   9.96863  10.01116  10.09988
 Alpha virt. eigenvalues --   10.15964  10.17034  10.18161  10.20951  10.23092
 Alpha virt. eigenvalues --   10.23795  10.24429  10.24693  10.26300  10.27309
 Alpha virt. eigenvalues --   10.27521  10.27996  10.28717  10.29990  10.31097
 Alpha virt. eigenvalues --   10.32563  10.35089  10.36318  10.37126  10.38219
 Alpha virt. eigenvalues --   10.39154  10.40450  10.40996  10.41823  10.45925
 Alpha virt. eigenvalues --   10.46952  10.47691  10.49299  10.51927  10.54008
 Alpha virt. eigenvalues --   10.55576  10.57369  10.62152  10.63760  10.65614
 Alpha virt. eigenvalues --   10.67874  10.69422  10.70324  10.72974  10.75897
 Alpha virt. eigenvalues --   10.77688  10.79238  18.11089  18.16342  18.18226
 Alpha virt. eigenvalues --   18.28329  18.36812  19.20207  19.21779  19.23320
 Alpha virt. eigenvalues --   19.26434  19.28123  19.28630  19.31688  19.40819
 Alpha virt. eigenvalues --   19.42365  19.46790  19.54463  19.63620  19.66153
 Alpha virt. eigenvalues --   19.75265  19.78258  24.20762  24.35197  24.40420
 Alpha virt. eigenvalues --   24.44474  24.46803  24.50844  24.52977  24.56792
 Alpha virt. eigenvalues --   24.67846  24.69121  24.71195  24.89061  24.91609
 Alpha virt. eigenvalues --   24.95110  25.02488  46.77739  46.84852  46.92452
 Alpha virt. eigenvalues --   46.96230  46.98663  47.00657  47.02417  47.04191
 Alpha virt. eigenvalues --   47.04687  47.05132  47.06355  47.06545  47.06991
 Alpha virt. eigenvalues --   47.07509  47.08064  47.09165  47.10036  47.11241
 Alpha virt. eigenvalues --   47.11991  47.12378  47.13529  47.13585  47.14928
 Alpha virt. eigenvalues --   47.15490  47.16046  47.17421  47.17857  47.19312
 Alpha virt. eigenvalues --   47.20141  47.20991  47.21957  47.23653  47.24647
 Alpha virt. eigenvalues --   47.25112  47.27029  47.28515  47.30360  47.32546
 Alpha virt. eigenvalues --   47.34016  47.35226  47.35927  47.36238  47.36971
 Alpha virt. eigenvalues --   47.39343  47.42460  48.59620  48.65490  48.69208
 Alpha virt. eigenvalues --   48.79061  48.85745  55.45727  55.48133  55.48698
 Alpha virt. eigenvalues --   55.49819  55.51386  55.52885  55.54877  55.56175
 Alpha virt. eigenvalues --   55.57412  55.57999  55.59870  55.61551  55.62713
 Alpha virt. eigenvalues --   55.64592  55.65127  55.66659  55.68203  55.75295
 Alpha virt. eigenvalues --   62.13034  62.25740  62.31406  62.34913  62.37045
 Alpha virt. eigenvalues --   62.39093  62.42619  62.46459  62.56878  62.58264
 Alpha virt. eigenvalues --   62.59695  62.76723  62.78001  62.81828  62.87289
 Alpha virt. eigenvalues --   93.90673  93.92986  93.94238  93.95948  93.96732
 Alpha virt. eigenvalues --   93.97449  93.99339  94.04235  94.04709  94.08482
 Alpha virt. eigenvalues --   94.12898  94.19016  94.21858  94.26513  94.29427
 Alpha virt. eigenvalues --  124.48762 124.54108 124.58133 124.66329 124.73354
 Alpha virt. eigenvalues --  148.83631 148.95085 149.00861 149.03966 149.05999
 Alpha virt. eigenvalues --  149.07071 149.11173 149.14868 149.24460 149.26036
 Alpha virt. eigenvalues --  149.27190 149.42904 149.43677 149.47426 149.51674
 Alpha virt. eigenvalues --  233.56071 233.58005 233.58623 233.59899 233.61230
 Alpha virt. eigenvalues --  233.62676 233.64536 233.65941 233.66583 233.67716
 Alpha virt. eigenvalues --  233.69259 233.70696 233.71744 233.73617 233.73957
 Alpha virt. eigenvalues --  233.75165 233.76559 233.83342 297.26673 297.31719
 Alpha virt. eigenvalues --  297.35600 297.43254 297.50098 402.13269 402.23635
 Alpha virt. eigenvalues --  402.29268 402.32057 402.34040 402.34441 402.38798
 Alpha virt. eigenvalues --  402.42312 402.50937 402.52733 402.53706 402.67743
 Alpha virt. eigenvalues --  402.68407 402.71919 402.75109 789.21510 789.22724
 Alpha virt. eigenvalues --  789.23803 789.25075 789.26334 789.27590 789.29312
 Alpha virt. eigenvalues --  789.30656 789.31152 789.32554 789.33916 789.35196
 Alpha virt. eigenvalues --  789.36168 789.38059 789.38310 789.39185 789.40481
 Alpha virt. eigenvalues --  789.47108 794.03593 794.08353 794.12197 794.19223
 Alpha virt. eigenvalues --  794.257811496.635921496.727631496.781821496.80514
 Alpha virt. eigenvalues -- 1496.820671496.825851496.867101496.899941496.97354
 Alpha virt. eigenvalues -- 1496.991841496.999591497.119651497.127681497.15911
 Alpha virt. eigenvalues -- 1497.180762505.230052505.233822505.251602505.26387
 Alpha virt. eigenvalues -- 2505.274432505.286702505.300042505.313902505.32066
 Alpha virt. eigenvalues -- 2505.335182505.347302505.357992505.367762505.38501
 Alpha virt. eigenvalues -- 2505.389922505.394722505.405872505.472432893.34752
 Alpha virt. eigenvalues -- 2893.391482893.429202893.490402893.550487970.71400
 Alpha virt. eigenvalues -- 7970.792717970.843727970.862317970.872107970.88297
 Alpha virt. eigenvalues -- 7970.918737970.949027971.007277971.024307971.02952
 Alpha virt. eigenvalues -- 7971.127837971.136777971.164487971.176558145.99348
 Alpha virt. eigenvalues -- 8146.008508146.025398146.037008146.047078146.05502
 Alpha virt. eigenvalues -- 8146.062978146.082948146.091598146.105998146.11546
 Alpha virt. eigenvalues -- 8146.125098146.134438146.149838146.155888146.15982
 Alpha virt. eigenvalues -- 8146.168058146.23476******************************
 Alpha virt. eigenvalues -- **************************************************
 Alpha virt. eigenvalues -- **************************************************
 Alpha virt. eigenvalues -- **************************************************
 Alpha virt. eigenvalues -- **************************************************
 Alpha virt. eigenvalues -- **************************************************
 Alpha virt. eigenvalues -- **************************************************
 Alpha virt. eigenvalues -- **************************************************
 Alpha virt. eigenvalues -- **************************************************
 Alpha virt. eigenvalues -- ********************
          Condensed to atoms (all electrons):
 Mulliken charges:
               1
     1  C   -0.054555
     2  C    0.276096
     3  C   -0.135448
     4  C   -0.295750
     5  C   -0.210667
     6  C   -0.200142
     7  C   -0.169634
     8  C   -0.202037
     9  C   -0.199138
    10  C   -0.209504
    11  C    0.382884
    12  O   -0.273680
    13  C    0.470639
    14  C   -0.271448
    15  C    0.094094
    16  C   -0.320621
    17  O   -0.290769
    18  O   -0.333785
    19  O   -0.353372
    20  O   -0.308640
    21  H    0.162341
    22  H    0.157600
    23  H    0.158531
    24  H    0.140156
    25  H    0.139105
    26  H    0.140005
    27  H    0.134924
    28  H    0.132322
    29  H    0.199105
    30  H    0.168591
    31  H    0.144882
    32  H    0.123512
    33  H    0.134183
    34  H    0.139760
    35  H    0.143201
    36  H    0.134255
    37  H    0.129511
    38  H    0.123494
 Sum of Mulliken charges =   0.00000
 Mulliken charges with hydrogens summed into heavy atoms:
               1
     1  C   -0.054555
     2  C    0.276096
     3  C    0.184493
     4  C   -0.295750
     5  C   -0.210667
     6  C   -0.041611
     7  C   -0.029478
     8  C    0.077073
     9  C    0.068108
    10  C    0.158192
    11  C    0.382884
    12  O   -0.273680
    13  C    0.470639
    14  C    0.131128
    15  C    0.377055
    16  C    0.066639
    17  O   -0.290769
    18  O   -0.333785
    19  O   -0.353372
    20  O   -0.308640
 Electronic spatial extent (au):  <R**2>=           4434.4873
 Charge=              0.0000 electrons
 Dipole moment (field-independent basis, Debye):
    X=             -5.3757    Y=             -3.6414    Z=              1.8768  Tot=              6.7587
 1\1\GINC-NODE33-032\SP\RwB97XD\Gen\C15H18O5\WG12385\18-Sep-2019\0\\#T 
 nmr(giao,spinspin,mixed)wb97xd/6-311g(d,p) maxdisk=50GB\\grandilobalid
 e_revised_4 NMR\\0,1\C,0,1.433133,0.554823,0.2557\C,0,1.323082,-0.3902
 18,-0.837857\C,0,0.024546,-0.966334,-1.277039\C,0,-1.241375,-0.35901,-
 0.584654\C,0,-0.960425,0.013113,0.894173\C,0,0.165542,1.059621,0.89956
 2\C,0,-2.229613,-1.562481,-0.487966\C,0,-1.820735,-2.237896,0.860502\C
 ,0,-0.717848,-1.369445,1.508748\C,0,2.736265,0.26721,0.933351\C,0,3.33
 045,-0.860476,0.090302\O,0,2.428841,-1.246281,-0.875225\C,0,-0.283125,
 2.294405,0.114144\C,0,-2.15426,0.653039,1.625156\C,0,-1.745405,0.88177
 6,-1.303993\C,0,-3.725622,-1.280993,-0.604251\O,0,1.636532,0.94214,-1.
 128453\O,0,4.389506,-1.382039,0.206914\O,0,0.088953,3.395848,0.393271\
 O,0,-1.091828,2.113057,-0.944395\H,0,0.079246,-2.033643,-1.058551\H,0,
 -0.083685,-0.877788,-2.361631\H,0,0.37457,1.414212,1.91001\H,0,-1.9996
 02,-2.244759,-1.310814\H,0,-1.482628,-3.264516,0.710065\H,0,-2.691585,
 -2.298231,1.517486\H,0,-0.786878,-1.358603,2.59876\H,0,0.273487,-1.752
 229,1.254516\H,0,3.420045,1.116503,0.942565\H,0,2.61269,-0.084812,1.96
 0187\H,0,-2.541206,1.543502,1.126726\H,0,-2.979612,-0.042551,1.763033\
 H,0,-1.824414,0.960075,2.621219\H,0,-1.628844,0.802307,-2.3859\H,0,-2.
 803791,1.041095,-1.092421\H,0,-4.277471,-2.214671,-0.469395\H,0,-3.985
 683,-0.897972,-1.594139\H,0,-4.098341,-0.572507,0.136126\\Version=ES64
 L-G09RevD.01\State=1-A\HF=-958.5484673\RMSD=6.968e-09\Dipole=-2.114943
 7,-1.43262,0.738398\Quadrupole=-1.9449232,-8.3230745,10.2679977,7.3828
 886,3.9872041,1.5265194\PG=C01 [X(C15H18O5)]\\@


 The arm of the moral universe is long, but it bends toward justice.
 -- Martin Luther King, Jr.
 Job cpu time:       0 days 17 hours  5 minutes 11.8 seconds.
 File lengths (MBytes):  RWF=   1301 Int=      0 D2E=      0 Chk=     34 Scr=      1
 Normal termination of Gaussian 09 at Wed Sep 18 06:17:43 2019.
 Link1:  Proceeding to internal job step number  2.
 ----------------------------------------------------------------------
 #T Geom=AllCheck Guess=TCheck SCRF=Check GenChk RwB97XD/ChkBas NMR=Rea
 dFC IOp(3/6=22)
 ----------------------------------------------------------------------
 Structure from the checkpoint file:  "grandilobalide_revised_4_NMR.chk"
 ----------------------------
 grandilobalide_revised_4 NMR
 ----------------------------
 Charge =  0 Multiplicity = 1
 Z-Matrix found in file.
 C,0,1.433133,0.554823,0.2557
 C,0,1.323082,-0.390218,-0.837857
 C,0,0.024546,-0.966334,-1.277039
 C,0,-1.241375,-0.35901,-0.584654
 C,0,-0.960425,0.013113,0.894173
 C,0,0.165542,1.059621,0.899562
 C,0,-2.229613,-1.562481,-0.487966
 C,0,-1.820735,-2.237896,0.860502
 C,0,-0.717848,-1.369445,1.508748
 C,0,2.736265,0.26721,0.933351
 C,0,3.33045,-0.860476,0.090302
 O,0,2.428841,-1.246281,-0.875225
 C,0,-0.283125,2.294405,0.114144
 C,0,-2.15426,0.653039,1.625156
 C,0,-1.745405,0.881776,-1.303993
 C,0,-3.725622,-1.280993,-0.604251
 O,0,1.636532,0.94214,-1.128453
 O,0,4.389506,-1.382039,0.206914
 O,0,0.088953,3.395848,0.393271
 O,0,-1.091828,2.113057,-0.944395
 H,0,0.079246,-2.033643,-1.058551
 H,0,-0.083685,-0.877788,-2.361631
 H,0,0.37457,1.414212,1.91001
 H,0,-1.999602,-2.244759,-1.310814
 H,0,-1.482628,-3.264516,0.710065
 H,0,-2.691585,-2.298231,1.517486
 H,0,-0.786878,-1.358603,2.59876
 H,0,0.273487,-1.752229,1.254516
 H,0,3.420045,1.116503,0.942565
 H,0,2.61269,-0.084812,1.960187
 H,0,-2.541206,1.543502,1.126726
 H,0,-2.979612,-0.042551,1.763033
 H,0,-1.824414,0.960075,2.621219
 H,0,-1.628844,0.802307,-2.3859
 H,0,-2.803791,1.041095,-1.092421
 H,0,-4.277471,-2.214671,-0.469395
 H,0,-3.985683,-0.897972,-1.594139
 H,0,-4.098341,-0.572507,0.136126
 Recover connectivity data from disk.
                    Distance matrix (angstroms):
                    1          2          3          4          5
     1  C    0.000000
     2  C    1.449510   0.000000
     3  C    2.578241   1.486939   0.000000
     4  C    2.948606   2.577116   1.565502   0.000000
     5  C    2.535787   2.894306   2.577527   1.550593   0.000000
     6  C    1.508697   2.541763   2.976905   2.488941   1.537208
     7  C    4.295547   3.757428   2.461556   1.560226   2.450233
     8  C    4.330441   4.022676   3.096936   2.440153   2.410043
     9  C    3.146372   3.260496   2.911058   2.382728   1.532323
    10  C    1.496691   2.359338   3.709565   4.303267   3.705620
    11  C    2.372813   2.261006   3.579082   4.648507   4.452075
    12  O    2.348276   1.398908   2.453662   3.787105   4.025415
    13  C    2.447800   3.270078   3.558437   2.906402   2.504291
    14  C    3.841151   4.387109   3.973953   2.596317   1.539183
    15  C    3.555650   3.354231   2.559094   1.520212   2.490523
    16  C    5.542787   5.132004   3.823011   2.649891   3.400926
    17  O    1.451642   1.399241   2.502569   3.204849   3.420277
    18  O    3.534679   3.387951   4.629017   5.777542   5.571403
    19  O    3.145977   4.168099   4.671479   4.101837   3.577009
    20  O    3.200586   3.479874   3.292354   2.502577   2.794166
    21  H    3.203189   2.072843   1.090815   2.184723   3.013844
    22  H    3.347168   2.130400   1.093569   2.183352   3.487497
    23  H    2.143793   3.421464   3.993344   3.461061   2.185684
    24  H    4.698435   3.834480   2.394303   2.158302   3.322626
    25  H    4.826537   4.304609   3.391430   3.190057   3.324070
    26  H    5.171588   5.030478   4.118335   3.206662   2.954276
    27  H    3.752276   4.147293   3.979209   3.367474   2.194844
    28  H    2.768556   2.708274   2.662400   2.760147   2.183762
    29  H    2.176026   3.136457   4.560073   5.122341   4.517558
    30  H    2.169277   3.096032   4.237358   4.626577   3.730030
    31  H    4.187069   4.746744   4.319774   2.870180   2.212474
    32  H    4.701194   5.039710   4.372685   2.938239   2.198893
    33  H    4.046174   4.867775   4.725052   3.515329   2.150791
    34  H    4.051543   3.540116   2.662961   2.177906   3.439257
    35  H    4.472741   4.375447   3.473233   2.158533   2.898500
    36  H    6.388025   5.901744   4.551701   3.560146   4.221982
    37  H    5.907291   5.386350   4.023327   2.973343   4.021686
    38  H    5.646448   5.511234   4.376109   2.954210   3.280869
                    6          7          8          9         10
     6  C    0.000000
     7  C    3.812797   0.000000
     8  C    3.849733   1.562604   0.000000
     9  C    2.655531   2.511884   1.546218   0.000000
    10  C    2.690292   5.479768   5.200684   3.865310   0.000000
    11  C    3.789237   5.633960   5.387504   4.319694   1.528222
    12  O    3.686404   4.685205   4.696269   3.949702   2.378258
    13  C    1.530645   4.361986   4.843867   3.944325   3.727913
    14  C    2.464402   3.062596   3.008893   2.483399   4.954260
    15  C    2.922157   2.621974   3.797771   3.746382   5.046659
    16  C    4.783418   1.526696   2.586457   3.676859   6.820347
    17  O    2.508079   4.650852   5.101104   4.223903   2.432279
    18  O    4.927813   6.657939   6.302917   5.270673   2.445596
    19  O    2.391684   5.544128   5.966933   4.960165   4.133802
    20  O    2.467972   3.874592   4.766524   4.276166   4.646222
    21  H    3.661958   2.424539   2.708212   2.769033   4.039969
    22  H    3.801453   2.929920   3.905045   3.952686   4.485537
    23  H    1.091069   4.625231   4.388476   3.017140   2.801264
    24  H    4.526868   1.093383   2.178682   3.218540   5.811601
    25  H    4.631472   2.211377   1.091282   2.194101   5.506542
    26  H    4.451985   2.185540   1.092542   2.181366   6.031936
    27  H    3.105187   3.413346   2.205347   1.092249   4.222486
    28  H    2.836220   3.055774   2.185609   1.092658   3.201024
    29  H    3.255284   6.414204   6.222901   4.860315   1.090385
    30  H    2.902272   5.623598   5.049786   3.598133   1.092512
    31  H    2.759027   3.514463   3.858617   3.457721   5.433048
    32  H    3.442726   2.817744   2.641420   2.634556   5.784079
    33  H    2.633237   4.024240   3.650638   2.808691   4.912103
    34  H    3.752372   3.091165   4.451829   4.551341   5.509803
    35  H    3.575651   2.733798   3.941077   4.114358   5.949359
    36  H    5.686422   2.149283   2.793692   4.159131   7.570992
    37  H    5.223350   2.179214   3.536617   4.530887   7.275331
    38  H    4.628971   2.204923   2.913028   3.734559   6.931993
                   11         12         13         14         15
    11  C    0.000000
    12  O    1.376222   0.000000
    13  C    4.797058   4.568377   0.000000
    14  C    5.893093   5.555550   2.911767   0.000000
    15  C    5.544710   4.704976   2.478890   2.966378   0.000000
    16  C    7.102633   6.160523   5.015012   3.343638   3.014709
    17  O    2.757562   2.341167   2.656643   4.694257   3.387028
    18  O    1.186266   2.243582   5.946287   6.998130   6.711545
    19  O    5.358674   5.351030   1.195630   3.751339   3.544874
    20  O    5.428539   4.866729   1.344393   3.140542   1.439627
    21  H    3.642322   2.484782   4.498725   4.405575   3.448081
    22  H    4.203403   2.942444   4.028901   4.746070   2.641207
    23  H    4.150032   4.365293   2.105335   2.656220   3.886849
    24  H    5.682325   4.560461   5.057747   4.128083   3.136859
    25  H    5.415647   4.678248   5.718001   4.078691   4.617057
    26  H    6.353652   5.748950   5.372369   3.001717   4.355278
    27  H    4.846946   4.735191   4.446521   2.619989   4.601038
    28  H    3.390522   3.072024   4.240933   3.437535   4.190451
    29  H    2.154722   3.141591   3.973311   5.635034   5.637729
    30  H    2.147860   3.069588   4.177834   4.835337   5.530114
    31  H    6.428812   6.040866   2.586138   1.091368   2.641889
    32  H    6.579051   6.136834   3.930807   1.088146   3.432826
    33  H    6.024331   5.931552   3.231321   1.093257   3.926788
    34  H    5.787143   4.789954   3.207419   4.048075   1.091066
    35  H    6.530216   5.714867   3.062734   2.820940   1.091021
    36  H    7.747746   6.788011   6.052031   4.137503   4.086061
    37  H    7.507633   6.464076   5.178652   4.015421   2.875853
    38  H    7.434512   6.639345   4.772373   2.738362   3.118524
                   16         17         18         19         20
    16  C    0.000000
    17  O    5.828362   0.000000
    18  O    8.156194   3.842379   0.000000
    19  O    6.117097   3.275871   6.430994   0.000000
    20  O    4.309541   2.974705   6.601987   2.197532   0.000000
    21  H    3.905111   3.359362   4.539199   5.620254   4.310402
    22  H    4.063824   2.791418   5.182772   5.087559   3.459778
    23  H    5.513367   3.323802   5.180663   2.511763   3.284256
    24  H    2.099338   4.838497   6.623329   6.251593   4.466417
    25  H    3.269987   5.550249   6.186989   6.850597   5.639881
    26  H    2.570170   6.019435   7.259398   6.435665   5.299013
    27  H    4.347588   5.005842   5.702318   5.313762   4.969846
    28  H    4.435082   3.846564   4.263346   5.222882   4.651852
    29  H    7.694231   2.738693   2.779163   4.073489   4.991066
    30  H    6.941282   3.398119   2.813155   4.575966   5.195255
    31  H    3.518081   4.785495   7.578893   3.299527   2.591261
    32  H    2.773861   5.535259   7.649813   4.807799   3.942149
    33  H    4.363558   5.102794   7.065916   3.815457   3.818331
    34  H    3.451216   3.501915   6.907575   4.171459   2.020987
    35  H    2.545619   4.441572   7.700868   4.014986   2.025298
    36  H    1.092922   6.736115   8.733107   7.161548   5.394736
    37  H    1.092801   5.933985   8.580321   6.244145   4.226448
    38  H    1.090427   6.064823   8.526658   5.774720   4.173596
                   21         22         23         24         25
    21  H    0.000000
    22  H    1.749447   0.000000
    23  H    4.559306   4.869310   0.000000
    24  H    2.104713   2.577511   5.422035   0.000000
    25  H    2.661297   4.133864   5.174896   2.321878   0.000000
    26  H    3.792556   4.885320   4.830902   2.912212   1.745627
    27  H    3.818609   5.033005   3.084127   4.188167   2.771956
    28  H    2.338205   3.737477   3.235157   3.462721   2.380626
    29  H    5.008874   5.212584   3.209283   6.763754   6.579026
    30  H    4.396483   5.155323   2.694211   6.052938   5.333381
    31  H    4.943498   4.906189   3.021920   4.537164   4.940772
    32  H    4.613285   5.108509   3.659822   3.906235   3.705504
    33  H    5.111455   5.588978   2.355332   5.075681   4.649354
    34  H    3.566797   2.282723   4.779429   3.252366   5.113260
    35  H    4.215099   3.562581   4.388142   3.389875   4.851053
    36  H    4.400098   4.791206   6.361749   2.428493   3.210054
    37  H    4.254439   3.976813   6.052856   2.416325   4.144294
    38  H    4.584147   4.738085   5.205828   3.048732   3.797140
                   26         27         28         29         30
    26  H    0.000000
    27  H    2.383267   0.000000
    28  H    3.026371   1.756789   0.000000
    29  H    7.024455   5.154351   4.269399   0.000000
    30  H    5.764594   3.686107   2.958060   1.769332   0.000000
    31  H    3.864482   3.696859   4.335974   5.979361   5.468885
    32  H    2.287213   2.690449   3.710019   6.555317   5.595936
    33  H    3.547784   2.540325   3.691295   5.508784   4.606153
    34  H    5.096977   5.497752   4.837060   6.055467   6.137268
    35  H    4.239729   4.842655   4.772883   6.548510   6.318572
    36  H    2.543563   4.725534   4.888450   8.505416   7.610091
    37  H    3.649332   5.293858   5.194720   8.083179   7.538766
    38  H    2.620161   4.200988   4.664271   7.747853   6.971584
                   31         32         33         34         35
    31  H    0.000000
    32  H    1.764271   0.000000
    33  H    1.757182   1.753917   0.000000
    34  H    3.704094   4.444323   5.013420   0.000000
    35  H    2.290410   3.059219   3.841467   1.763692   0.000000
    36  H    4.436900   3.374356   5.064425   4.448637   3.627659
    37  H    3.930702   3.607565   5.088484   3.012063   2.325633
    38  H    2.807749   2.044318   3.700708   3.788026   2.406013
                   36         37         38
    36  H    0.000000
    37  H    1.756100   0.000000
    38  H    1.759388   1.764210   0.000000
 Framework group  C1[X(C15H18O5)]
 Deg. of freedom   108
                         Standard orientation:                         
 ---------------------------------------------------------------------
 Center     Atomic      Atomic             Coordinates (Angstroms)
 Number     Number       Type             X           Y           Z
 ---------------------------------------------------------------------
      1          6           0        1.433133    0.554823    0.255700
      2          6           0        1.323082   -0.390218   -0.837857
      3          6           0        0.024546   -0.966334   -1.277039
      4          6           0       -1.241375   -0.359010   -0.584654
      5          6           0       -0.960425    0.013113    0.894173
      6          6           0        0.165542    1.059621    0.899562
      7          6           0       -2.229613   -1.562481   -0.487966
      8          6           0       -1.820735   -2.237896    0.860502
      9          6           0       -0.717848   -1.369445    1.508748
     10          6           0        2.736265    0.267210    0.933351
     11          6           0        3.330450   -0.860476    0.090302
     12          8           0        2.428841   -1.246281   -0.875225
     13          6           0       -0.283125    2.294405    0.114144
     14          6           0       -2.154260    0.653039    1.625156
     15          6           0       -1.745405    0.881776   -1.303993
     16          6           0       -3.725622   -1.280993   -0.604251
     17          8           0        1.636532    0.942140   -1.128453
     18          8           0        4.389506   -1.382039    0.206914
     19          8           0        0.088953    3.395848    0.393271
     20          8           0       -1.091828    2.113057   -0.944395
     21          1           0        0.079246   -2.033643   -1.058551
     22          1           0       -0.083685   -0.877788   -2.361631
     23          1           0        0.374570    1.414212    1.910010
     24          1           0       -1.999602   -2.244759   -1.310814
     25          1           0       -1.482628   -3.264516    0.710065
     26          1           0       -2.691585   -2.298231    1.517486
     27          1           0       -0.786878   -1.358603    2.598760
     28          1           0        0.273487   -1.752229    1.254516
     29          1           0        3.420045    1.116503    0.942565
     30          1           0        2.612690   -0.084812    1.960187
     31          1           0       -2.541206    1.543502    1.126726
     32          1           0       -2.979612   -0.042551    1.763033
     33          1           0       -1.824414    0.960075    2.621219
     34          1           0       -1.628844    0.802307   -2.385900
     35          1           0       -2.803791    1.041095   -1.092421
     36          1           0       -4.277471   -2.214671   -0.469395
     37          1           0       -3.985683   -0.897972   -1.594139
     38          1           0       -4.098341   -0.572507    0.136126
 ---------------------------------------------------------------------
 Rotational constants (GHZ):      0.5758458      0.3371698      0.2714897
   468 basis functions,   784 primitive gaussians,   488 cartesian basis functions
    74 alpha electrons       74 beta electrons
       nuclear repulsion energy      1788.7112971938 Hartrees.
 NAtoms=   38 NActive=   38 NUniq=   38 SFac= 1.00D+00 NAtFMM=   60 NAOKFM=F Big=F
 Nuclear repulsion after empirical dispersion term =     1788.6697046749 Hartrees.
 Initial guess from the checkpoint file:  "grandilobalide_revised_4_NMR.chk"
 B after Tr=     0.000000    0.000000    0.000000
         Rot=    1.000000    0.000000    0.000000    0.000000 Ang=   0.00 deg.
 SCF Done:  E(RwB97XD) =  -958.498210958     A.U. after   10 cycles
            NFock= 10  Conv=0.50D-08     -V/T= 2.0036
 DoSCS=F DFT=T ScalE2(SS,OS)=  1.000000  1.000000
 NROrb=    468 NOA=    74 NOB=    74 NVA=   394 NVB=   394
          IDoAtm=11111111111111111111111111111111111111
          Differentiating once with respect to magnetic field using GIAOs.
          Differentiating once with respect to nuclear magnetic moments.
          Differentiating once with respect to Fermi-contact and electric field gradient.
          Electric field/nuclear overlap derivatives assumed to be zero.
 FoFCou: FMM=F IPFlag=           0 FMFlag=      100000 FMFlg1=           0
         NFxFlg=           0 DoJE=F BraDBF=F KetDBF=T FulRan=T
         wScrn=  0.000000 ICntrl=    6100 IOpCl=  0 I1Cent=           7 NGrid=          38
         NMat0=    1 NMatS0=      1 NMatT0=    0 NMatD0=    1 NMtDS0=    0 NMtDT0=    0
 Symmetry not used in FoFCou.
 FoFJK:  IHMeth= 1 ICntrl=    6127 DoSepK=T KAlg= 0 I1Cent=   0 FoldK=F
 IRaf=         1 NMat=   1 IRICut=       1 DoRegI=T DoRafI=F ISym2E= 0.
 Calculating GIAO nuclear magnetic shielding tensors.
 SCF GIAO Magnetic shielding tensor (ppm):
      1  C    Isotropic =   130.9546   Anisotropy =    60.5920
   XX=   166.3631   YX=   -13.8916   ZX=    -3.1593
   XY=   -17.2069   YY=   115.1333   ZY=   -17.7343
   XZ=     2.8704   YZ=   -26.2211   ZZ=   111.3675
   Eigenvalues:    89.6650   131.8496   171.3493
      2  C    Isotropic =   103.7820   Anisotropy =    68.6747
   XX=   138.4932   YX=   -25.9609   ZX=     0.3142
   XY=   -19.5173   YY=    99.1331   ZY=    -6.5894
   XZ=     5.5047   YZ=   -14.9357   ZZ=    73.7197
   Eigenvalues:    69.2972    92.4836   149.5651
      3  C    Isotropic =   146.4953   Anisotropy =    37.5179
   XX=   168.5663   YX=    -4.3006   ZX=    -7.4287
   XY=    -1.7973   YY=   143.3976   ZY=    10.2474
   XZ=   -12.3030   YZ=     2.2599   ZZ=   127.5219
   Eigenvalues:   123.7473   144.2313   171.5072
      4  C    Isotropic =   144.5361   Anisotropy =    18.8080
   XX=   145.4722   YX=    15.3140   ZX=     2.0674
   XY=     5.9340   YY=   135.4259   ZY=    -2.7897
   XZ=     6.3410   YZ=   -16.5490   ZZ=   152.7101
   Eigenvalues:   124.7956   151.7379   157.0747
      5  C    Isotropic =   141.2549   Anisotropy =    20.7499
   XX=   134.9746   YX=    -4.2469   ZX=     9.8046
   XY=    11.3824   YY=   146.2561   ZY=    -4.6450
   XZ=    21.1535   YZ=    -5.4340   ZZ=   142.5341
   Eigenvalues:   121.4057   147.2709   155.0882
      6  C    Isotropic =   135.8879   Anisotropy =    13.1323
   XX=   134.0919   YX=    -9.9741   ZX=    -3.4565
   XY=     7.1858   YY=   138.6148   ZY=   -13.0261
   XZ=    -3.3986   YZ=    -2.0352   ZZ=   134.9569
   Eigenvalues:   127.1883   135.8326   144.6427
      7  C    Isotropic =   144.1054   Anisotropy =    37.7180
   XX=   151.3419   YX=    15.3459   ZX=     4.9944
   XY=    17.1948   YY=   153.4664   ZY=    -4.6021
   XZ=    -7.6619   YZ=    -5.8978   ZZ=   127.5081
   Eigenvalues:   126.2808   136.7847   169.2508
      8  C    Isotropic =   156.1216   Anisotropy =    42.0679
   XX=   152.5359   YX=    14.7951   ZX=    19.5525
   XY=    10.9207   YY=   146.3488   ZY=   -15.6362
   XZ=    20.6742   YZ=   -16.4429   ZZ=   169.4799
   Eigenvalues:   122.5889   161.6090   184.1668
      9  C    Isotropic =   155.1106   Anisotropy =    31.1640
   XX=   141.6624   YX=     8.4248   ZX=    11.9398
   XY=     0.0799   YY=   171.5658   ZY=   -11.2494
   XZ=     9.1747   YZ=    -9.0200   ZZ=   152.1035
   Eigenvalues:   132.9389   156.5062   175.8866
     10  C    Isotropic =   149.8136   Anisotropy =    34.4147
   XX=   162.7800   YX=   -17.6737   ZX=     1.1368
   XY=   -17.9970   YY=   140.7767   ZY=     1.0312
   XZ=     1.4859   YZ=     6.8620   ZZ=   145.8842
   Eigenvalues:   129.7852   146.8989   172.7568
     11  C    Isotropic =    15.3973   Anisotropy =   108.8844
   XX=    72.0388   YX=   -45.7159   ZX=   -34.7407
   XY=   -21.1235   YY=    11.8846   ZY=   -45.6339
   XZ=   -31.8947   YZ=   -57.0912   ZZ=   -37.7316
   Eigenvalues:   -83.6252    41.8301    87.9869
     12  O    Isotropic =    84.3454   Anisotropy =   171.8173
   XX=    48.1094   YX=   180.6098   ZX=    66.7181
   XY=    84.0834   YY=    82.7094   ZY=   -31.2624
   XZ=    -6.3347   YZ=   -23.7815   ZZ=   122.2174
   Eigenvalues:   -76.4608   130.6067   198.8902
     13  C    Isotropic =    23.8156   Anisotropy =    86.7586
   XX=    33.6133   YX=    22.3305   ZX=   -70.7998
   XY=    16.9973   YY=    58.3929   ZY=    28.2906
   XZ=   -68.6360   YZ=    36.7336   ZZ=   -20.5594
   Eigenvalues:   -78.7629    68.5550    81.6546
     14  C    Isotropic =   164.1930   Anisotropy =    35.3602
   XX=   172.1750   YX=   -10.8601   ZX=   -11.1585
   XY=   -10.8179   YY=   155.9054   ZY=     8.2554
   XZ=   -15.2262   YZ=     7.7231   ZZ=   164.4986
   Eigenvalues:   150.2125   154.6000   187.7665
     15  C    Isotropic =   113.4079   Anisotropy =    52.9683
   XX=   103.7322   YX=    20.3364   ZX=    16.8882
   XY=    16.2183   YY=   136.9392   ZY=     8.5164
   XZ=    12.8264   YZ=     7.1798   ZZ=    99.5524
   Eigenvalues:    85.7100   105.7937   148.7201
     16  C    Isotropic =   168.3428   Anisotropy =    26.9641
   XX=   184.9977   YX=    -4.0613   ZX=     6.6762
   XY=    -0.8763   YY=   155.4620   ZY=    -3.4948
   XZ=     2.8326   YZ=    -0.8047   ZZ=   164.5685
   Eigenvalues:   154.9118   163.7977   186.3188
     17  O    Isotropic =   219.2916   Anisotropy =   200.8597
   XX=   333.5182   YX=   -58.7541   ZX=    11.3158
   XY=   -60.1695   YY=   170.6337   ZY=    43.0938
   XZ=    28.8462   YZ=   123.8460   ZZ=   153.7228
   Eigenvalues:    66.8091   237.8676   353.1980
     18  O    Isotropic =  -116.0976   Anisotropy =   619.3089
   XX=  -278.3498   YX=   165.7297   ZX=  -195.1088
   XY=   149.0842   YY=     8.4212   ZY=  -211.1115
   XZ=  -226.2398   YZ=  -214.2470   ZZ=   -78.3643
   Eigenvalues:  -412.9356  -232.1322   296.7750
     19  O    Isotropic =  -117.1507   Anisotropy =   597.1441
   XX=    45.7886   YX=   -83.1851   ZX=  -294.6538
   XY=  -102.9727   YY=  -282.9173   ZY=   -28.5212
   XZ=  -306.2803   YZ=   -54.6367   ZZ=  -114.3234
   Eigenvalues:  -410.1693  -222.2282   280.9454
     20  O    Isotropic =   148.7106   Anisotropy =   174.6731
   XX=   218.0948   YX=   -83.6286   ZX=   -24.2458
   XY=  -103.9374   YY=   -25.6401   ZY=   -36.2874
   XZ=   -22.2444   YZ=   -57.1713   ZZ=   253.6770
   Eigenvalues:   -65.9239   246.8963   265.1593
     21  H    Isotropic =    30.0596   Anisotropy =     5.7745
   XX=    31.2919   YX=    -0.9193   ZX=    -2.3738
   XY=    -0.4903   YY=    32.6778   ZY=     1.7824
   XZ=    -2.3841   YZ=     1.7401   ZZ=    26.2091
   Eigenvalues:    25.0134    31.2561    33.9092
     22  H    Isotropic =    29.6531   Anisotropy =     8.0861
   XX=    28.9010   YX=     0.7286   ZX=    -0.5159
   XY=    -0.1174   YY=    25.4962   ZY=     2.1439
   XZ=    -0.7660   YZ=     1.8968   ZZ=    34.5621
   Eigenvalues:    25.0178    28.8977    35.0438
     23  H    Isotropic =    29.4112   Anisotropy =     6.0768
   XX=    29.1938   YX=     2.0469   ZX=    -0.2019
   XY=     0.6341   YY=    28.2257   ZY=     2.1371
   XZ=     1.3702   YZ=     4.5298   ZZ=    30.8141
   Eigenvalues:    25.7573    29.0139    33.4624
     24  H    Isotropic =    30.2095   Anisotropy =     7.0021
   XX=    30.4238   YX=     1.4049   ZX=    -0.4039
   XY=     0.2908   YY=    30.0203   ZY=     4.8703
   XZ=     0.0688   YZ=     4.5762   ZZ=    30.1845
   Eigenvalues:    25.2766    30.4743    34.8776
     25  H    Isotropic =    29.7416   Anisotropy =    10.8444
   XX=    26.2660   YX=    -0.2638   ZX=     0.8773
   XY=    -0.3945   YY=    36.8639   ZY=    -0.6503
   XZ=     0.6505   YZ=    -1.3542   ZZ=    26.0949
   Eigenvalues:    25.3863    26.8673    36.9712
     26  H    Isotropic =    30.4134   Anisotropy =     9.4814
   XX=    31.9582   YX=     3.5082   ZX=    -2.4670
   XY=     4.0254   YY=    28.6680   ZY=    -2.8777
   XZ=    -2.8962   YZ=    -2.5910   ZZ=    30.6140
   Eigenvalues:    25.9774    28.5285    36.7343
     27  H    Isotropic =    30.7453   Anisotropy =    10.1052
   XX=    27.5820   YX=     0.2775   ZX=     1.9346
   XY=     0.7197   YY=    27.8891   ZY=    -2.4633
   XZ=     0.9618   YZ=    -2.0809   ZZ=    36.7648
   Eigenvalues:    26.5589    28.1949    37.4821
     28  H    Isotropic =    30.6672   Anisotropy =     6.6340
   XX=    34.4378   YX=    -1.5907   ZX=     0.3813
   XY=    -1.6962   YY=    30.0219   ZY=    -2.2761
   XZ=    -0.1905   YZ=    -2.5253   ZZ=    27.5420
   Eigenvalues:    26.0056    30.9062    35.0899
     29  H    Isotropic =    29.1851   Anisotropy =     9.5866
   XX=    32.9850   YX=     3.3972   ZX=     2.8067
   XY=     3.1608   YY=    29.1570   ZY=     1.3651
   XZ=     2.1493   YZ=     0.7749   ZZ=    25.4133
   Eigenvalues:    24.6720    27.3072    35.5762
     30  H    Isotropic =    29.7823   Anisotropy =     7.9474
   XX=    30.2872   YX=    -0.9763   ZX=     1.9968
   XY=    -0.9993   YY=    25.5701   ZY=    -1.8941
   XZ=     2.7275   YZ=    -1.1188   ZZ=    33.4896
   Eigenvalues:    25.2247    29.0416    35.0806
     31  H    Isotropic =    30.9289   Anisotropy =     8.7606
   XX=    31.1223   YX=    -4.7504   ZX=    -1.1599
   XY=    -4.6206   YY=    32.7362   ZY=    -0.2858
   XZ=    -1.9086   YZ=    -0.1821   ZZ=    28.9282
   Eigenvalues:    26.4489    29.5685    36.7693
     32  H    Isotropic =    30.6794   Anisotropy =     8.2261
   XX=    34.4251   YX=     2.6857   ZX=    -3.1743
   XY=     1.2798   YY=    28.9402   ZY=     2.4773
   XZ=    -3.7022   YZ=     1.6655   ZZ=    28.6729
   Eigenvalues:    25.1040    30.7708    36.1635
     33  H    Isotropic =    31.2672   Anisotropy =    10.7782
   XX=    28.7729   YX=    -0.2866   ZX=    -2.3782
   XY=    -0.0632   YY=    28.7100   ZY=     4.4501
   XZ=    -0.9620   YZ=     3.9696   ZZ=    36.3187
   Eigenvalues:    26.6955    28.6534    38.4527
     34  H    Isotropic =    27.9732   Anisotropy =     7.5264
   XX=    25.1182   YX=     0.8593   ZX=     3.9057
   XY=     0.4618   YY=    27.1591   ZY=    -0.4456
   XZ=     2.3061   YZ=    -1.7621   ZZ=    31.6424
   Eigenvalues:    23.5783    27.3506    32.9908
     35  H    Isotropic =    27.6155   Anisotropy =     5.5679
   XX=    30.2613   YX=     0.0483   ZX=     2.5942
   XY=     1.0338   YY=    28.7251   ZY=    -1.5801
   XZ=     3.0481   YZ=    -1.1719   ZZ=    23.8600
   Eigenvalues:    22.4461    29.0730    31.3274
     36  H    Isotropic =    30.9625   Anisotropy =    11.7847
   XX=    35.0164   YX=     5.7805   ZX=     0.9229
   XY=     4.6694   YY=    31.4289   ZY=     0.0733
   XZ=     1.4094   YZ=    -0.0943   ZZ=    26.4423
   Eigenvalues:    26.0810    27.9876    38.8190
     37  H    Isotropic =    31.0657   Anisotropy =    11.0063
   XX=    33.1508   YX=    -0.3863   ZX=     5.8684
   XY=     0.4404   YY=    27.1792   ZY=    -2.1906
   XZ=     4.5616   YZ=    -1.8741   ZZ=    32.8670
   Eigenvalues:    25.8816    28.9123    38.4032
     38  H    Isotropic =    30.9415   Anisotropy =     6.7115
   XX=    34.7545   YX=    -1.4489   ZX=    -1.3059
   XY=    -0.9281   YY=    28.9239   ZY=     3.0811
   XZ=    -0.2949   YZ=     3.6528   ZZ=    29.1462
   Eigenvalues:    25.6562    31.7525    35.4158
