
                                 *****************
                                 * O   R   C   A *
                                 *****************

           --- An Ab Initio, DFT and Semiempirical electronic structure package ---

                  #######################################################
                  #                        -***-                        #
                  #          Department of theory and spectroscopy      #
                  #               Directorship: Frank Neese             #
                  #        Max Planck Institute fuer Kohlenforschung    #
                  #                Kaiser Wilhelm Platz 1               #
                  #                 D-45470 Muelheim/Ruhr               #
                  #                      Germany                        #
                  #                                                     #
                  #                  All rights reserved                #
                  #                        -***-                        #
                  #######################################################


                         Program Version 4.2.0 -  RELEASE  -


 With contributions from (in alphabetic order):
   Daniel Aravena         : Magnetic Suceptibility
   Michael Atanasov       : Ab Initio Ligand Field Theory (pilot matlab implementation)
   Alexander A. Auer      : GIAO ZORA, VPT2
   Ute Becker             : Parallelization
   Giovanni Bistoni       : ED, misc. LED, open-shell LED, HFLED
   Martin Brehm           : Molecular dynamics
   Dmytro Bykov           : SCF Hessian
   Vijay G. Chilkuri      : MRCI spin determinant printing, contributions to CSF-ICE
   Dipayan Datta          : RHF DLPNO-CCSD density
   Achintya Kumar Dutta   : EOM-CC, STEOM-CC
   Dmitry Ganyushin       : Spin-Orbit,Spin-Spin,Magnetic field MRCI
   Miquel Garcia          : C-PCM Hessian, Gaussian charge scheme
   Yang Guo               : DLPNO-NEVPT2, CIM, IAO-localization
   Andreas Hansen         : Spin unrestricted coupled pair/coupled cluster methods
   Benjamin Helmich-Paris : CASSCF linear response (MC-RPA)
   Lee Huntington         : MR-EOM, pCC
   Robert Izsak           : Overlap fitted RIJCOSX, COSX-SCS-MP3, EOM
   Christian Kollmar      : KDIIS, OOCD, Brueckner-CCSD(T), CCSD density
   Simone Kossmann        : Meta GGA functionals, TD-DFT gradient, OOMP2, MP2 Hessian
   Martin Krupicka        : AUTO-CI
   Lucas Lang             : DCDCAS
   Dagmar Lenk            : GEPOL surface, SMD
   Dimitrios Liakos       : Extrapolation schemes; Compound Job, initial MDCI parallelization
   Dimitrios Manganas     : Further ROCIS development; embedding schemes
   Dimitrios Pantazis     : SARC Basis sets
   Taras Petrenko         : DFT Hessian,TD-DFT gradient, ASA, ECA, R-Raman, ABS, FL, XAS/XES, NRVS
   Peter Pinski           : DLPNO-MP2, DLPNO-MP2 Gradient
   Christoph Reimann      : Effective Core Potentials
   Marius Retegan         : Local ZFS, SOC
   Christoph Riplinger    : Optimizer, TS searches, QM/MM, DLPNO-CCSD(T), (RO)-DLPNO pert. Triples
   Tobias Risthaus        : Range-separated hybrids, TD-DFT gradient, RPA, STAB
   Michael Roemelt        : Original ROCIS implementation
   Masaaki Saitow         : Open-shell DLPNO-CCSD energy and density
   Barbara Sandhoefer     : DKH picture change effects
   Avijit Sen             : IP-ROCIS
   Kantharuban Sivalingam : CASSCF convergence, NEVPT2, FIC-MRCI
   Bernardo de Souza      : ESD, SOC TD-DFT
   Georgi Stoychev        : AutoAux, RI-MP2 NMR
   Willem Van den Heuvel  : Paramagnetic NMR
   Boris Wezisla          : Elementary symmetry handling
   Frank Wennmohs         : Technical directorship


 We gratefully acknowledge several colleagues who have allowed us to
 interface, adapt or use parts of their codes:
   Stefan Grimme, W. Hujo, H. Kruse,             : VdW corrections, initial TS optimization,
                  C. Bannwarth                     DFT functionals, gCP, sTDA/sTD-DF
   Ed Valeev, F. Pavosevic, A. Kumar             : LibInt (2-el integral package), F12 methods
   Garnet Chan, S. Sharma, J. Yang, R. Olivares  : DMRG
   Ulf Ekstrom                                   : XCFun DFT Library
   Mihaly Kallay                                 : mrcc  (arbitrary order and MRCC methods)
   Andreas Klamt, Michael Diedenhofen            : otool_cosmo (COSMO solvation model)
   Jiri Pittner, Ondrej Demel                    : Mk-CCSD
   Frank Weinhold                                : gennbo (NPA and NBO analysis)
   Christopher J. Cramer and Donald G. Truhlar   : smd solvation model
   Lars Goerigk                                  : TD-DFT with DH, B97 family of functionals
   V. Asgeirsson, H. Jonsson                     : NEB implementation
   FAccTs GmbH                                   : IRC, NEB, NEB-TS, Multilevel, MM, QM/MM, CI optimization
   S Lehtola, MJT Oliveira, MAL Marques          : LibXC Library


 Your calculation uses the libint2 library for the computation of 2-el integrals
 For citations please refer to: http://libint.valeyev.net

 Your ORCA version has been built with support for libXC version: 4.2.3
 For citations please refer to: https://tddft.org/programs/libxc/

 This ORCA versions uses:
   CBLAS   interface :  Fast vector & matrix operations
   LAPACKE interface :  Fast linear algebra routines
   SCALAPACK package :  Parallel linear algebra routines


Your calculation utilizes the atom-pairwise dispersion correction
with the zero-damping scheme (D30)
Cite in your paper:
S.Grimme, J.Antony, S.Ehrlich and H.Krieg, J.Chem.Phys., 132, (2010), 154104


XCFun DFT library Copyright 2009-2010 Ulf Ekstrom and contributors.
See http://admol.org/xcfun for more information. This is free soft-
ware; see the source code for copying conditions. There is ABSOLUTELY
NO WARRANTY; not even for MERCHANTABILITY or FITNESS FOR A PARTICULAR
PURPOSE. For details see the documentation. Scientific users of this
library should cite U. Ekstrom, L. Visscher, R. Bast, A. J. Thorvald-
sen and K. Ruud; J.Chem.Theor.Comp. 2010, DOI: 10.1021/ct100117s
XCFun Version 0.99

Warning: The global flag for chemical shieldings has been found
         but shieldings for certain elements have also been explicitly requested in the EPRNMR block
         ==>> only the requested shieldings will be calculated

----- Orbital basis set information -----
Your calculation utilizes the basis: 6-311G
   H, Li - Ne  : R. Krishnan, J. S. Binkley, R. Seeger and J. A. Pople, J. Chem. Phys. 72, 650 (1980).
   Na - Ar     : A. D. McLean and G. S. Chandler J. Chem. Phys. 72, 5639, (1980).
   K  - Ca     : J.-P. Blaudeau, M. P. McGrath, L. A. Curtiss and L. Radom, J. Chem. Phys. 107, 5016 (1997).
   Ga - Kr     : L. A. Curtiss, M. P. McGrath, J.-P. Blandeau, N. E. Davis, R. C. Binning and L. Radom, J. Chem. Phys. 103, 6104 (1995).

----- AuxJ basis set information -----
Your calculation utilizes the auxiliary basis: def2/J
   F. Weigend, Phys. Chem. Chem. Phys. 8, 1057 (2006).

================================================================================
                                        WARNINGS
                       Please study these warnings very carefully!
================================================================================


Warning: GIAO-COSX with a grid smaller than GRIDX6 NOFINALGRIDX may be inaccurate and is not recommended!

INFO   : the flag for use of LIBINT has been found!

================================================================================
                                       INPUT FILE
================================================================================
NAME = NMR/3_NMR.in
|  1> ! wB97X-D3 6-311g def2/J  TightSCF miniprint NMR  PAL4
|  2>
|  3> * xyz 0 1
|  4>  C          -2.083125          1.082432         -0.473568
|  5>  C          -2.356374         -0.274892         -0.375657
|  6>  C          -3.576291         -0.792394          0.200852
|  7>  C          -4.593106          0.296065          0.273606
|  8>  C          -4.143883          1.648660          0.453469
|  9>  C          -2.948689          2.133811          0.009326
| 10>  C          -1.237189         -1.101117         -0.958936
| 11>  N          -0.280907         -0.034591         -1.337796
| 12>  C          -0.768687          1.163935         -1.046493
| 13>  O          -0.147482          2.315297         -1.271889
| 14>  C          -2.168740          4.564522          0.104825
| 15>  C           1.344308          2.423855         -1.190734
| 16>  C           1.775279          1.969157          0.162290
| 17>  H           2.353043          2.435665          3.202000
| 18>  C           3.371872          2.776630          3.375500
| 19>  H           1.519929         -3.285974          1.378891
| 20>  O           2.448749         -0.272707         -1.668250
| 21>  C           3.004825         -0.242477         -0.323333
| 22>  C           2.405949          0.843217          0.508781
| 23>  C           0.973564         -3.927883          0.683449
| 24>  C           0.332685         -3.118657         -0.443028
| 25>  C          -0.603494         -2.038430          0.098678
| 26>  H           2.541976          0.679261          1.575241
| 27>  H          -0.222856         -3.795638         -1.094268
| 28>  C          -1.715406         -1.838279         -2.219111
| 29>  C          -3.835898         -2.012989          0.656521
| 30>  C          -5.998201          0.570388          0.294842
| 31>  C          -5.389279          1.644101          1.213650
| 32>  N          -2.535801          3.441946          0.073620
| 33>  H           0.680141         -0.213676         -1.635513
| 34>  H           1.484401          3.490633         -1.321413
| 35>  H           1.790689          1.877150         -2.012044
| 36>  H           1.482800          2.633485          0.967161
| 37>  H           3.509549          2.974945          4.435084
| 38>  H           3.539796          3.686870          2.805092
| 39>  H           3.059884         -0.640670         -2.319326
| 40>  H           2.827687         -1.208962          0.154433
| 41>  H           4.088574         -0.099786         -0.378946
| 42>  H           0.215215         -4.459268          1.260058
| 43>  H           1.671484         -4.669506          0.293309
| 44>  H          -1.419722         -2.510917          0.656139
| 45>  H           4.078949          2.014152          3.052786
| 46>  H          -0.062256         -1.407448          0.811571
| 47>  H          -0.887350         -2.332883         -2.723233
| 48>  H           1.112928         -2.666023         -1.063788
| 49>  H          -2.182179         -1.136250         -2.907136
| 50>  H          -2.457341         -2.584747         -1.936749
| 51> *
| 52> %eprnmr
| 53>        GIAO_2el = GIAO_2el_RIJCOSX
| 54>        Nuclei = all H   { shift }
| 55>        Nuclei = all C   { shift }
| 56>        Nuclei = all N   { shift }
| 57>        Nuclei = all O   { shift }
| 58>        Nuclei = all F   { shift }
| 59>        Nuclei = all H   { ssall }
| 60>        Nuclei = all C   { ssall }
| 61> SpinSpinRThresh 20.000000
| 62> end
| 63>
| 64>                          ****END OF INPUT****
================================================================================

                       ****************************
                       * Single Point Calculation *
                       ****************************

---------------------------------
CARTESIAN COORDINATES (ANGSTROEM)
---------------------------------
  C     -2.083125    1.082432   -0.473568
  C     -2.356374   -0.274892   -0.375657
  C     -3.576291   -0.792394    0.200852
  C     -4.593106    0.296065    0.273606
  C     -4.143883    1.648660    0.453469
  C     -2.948689    2.133811    0.009326
  C     -1.237189   -1.101117   -0.958936
  N     -0.280907   -0.034591   -1.337796
  C     -0.768687    1.163935   -1.046493
  O     -0.147482    2.315297   -1.271889
  C     -2.168740    4.564522    0.104825
  C      1.344308    2.423855   -1.190734
  C      1.775279    1.969157    0.162290
  H      2.353043    2.435665    3.202000
  C      3.371872    2.776630    3.375500
  H      1.519929   -3.285974    1.378891
  O      2.448749   -0.272707   -1.668250
  C      3.004825   -0.242477   -0.323333
  C      2.405949    0.843217    0.508781
  C      0.973564   -3.927883    0.683449
  C      0.332685   -3.118657   -0.443028
  C     -0.603494   -2.038430    0.098678
  H      2.541976    0.679261    1.575241
  H     -0.222856   -3.795638   -1.094268
  C     -1.715406   -1.838279   -2.219111
  C     -3.835898   -2.012989    0.656521
  C     -5.998201    0.570388    0.294842
  C     -5.389279    1.644101    1.213650
  N     -2.535801    3.441946    0.073620
  H      0.680141   -0.213676   -1.635513
  H      1.484401    3.490633   -1.321413
  H      1.790689    1.877150   -2.012044
  H      1.482800    2.633485    0.967161
  H      3.509549    2.974945    4.435084
  H      3.539796    3.686870    2.805092
  H      3.059884   -0.640670   -2.319326
  H      2.827687   -1.208962    0.154433
  H      4.088574   -0.099786   -0.378946
  H      0.215215   -4.459268    1.260058
  H      1.671484   -4.669506    0.293309
  H     -1.419722   -2.510917    0.656139
  H      4.078949    2.014152    3.052786
  H     -0.062256   -1.407448    0.811571
  H     -0.887350   -2.332883   -2.723233
  H      1.112928   -2.666023   -1.063788
  H     -2.182179   -1.136250   -2.907136
  H     -2.457341   -2.584747   -1.936749

----------------------------
CARTESIAN COORDINATES (A.U.)
----------------------------
  NO LB      ZA    FRAG     MASS         X           Y           Z
   0 C     6.0000    0    12.011   -3.936536    2.045500   -0.894914
   1 C     6.0000    0    12.011   -4.452902   -0.519471   -0.709889
   2 C     6.0000    0    12.011   -6.758211   -1.497408    0.379555
   3 C     6.0000    0    12.011   -8.679712    0.559482    0.517040
   4 C     6.0000    0    12.011   -7.830804    3.115516    0.856932
   5 C     6.0000    0    12.011   -5.572215    4.032318    0.017624
   6 C     6.0000    0    12.011   -2.337948   -2.080810   -1.812126
   7 N     7.0000    0    14.007   -0.530837   -0.065368   -2.528068
   8 C     6.0000    0    12.011   -1.452608    2.199518   -1.977585
   9 O     8.0000    0    15.999   -0.278701    4.375277   -2.403522
  10 C     6.0000    0    12.011   -4.098325    8.625697    0.198091
  11 C     6.0000    0    12.011    2.540374    4.580422   -2.250161
  12 C     6.0000    0    12.011    3.354791    3.721167    0.306684
  13 H     1.0000    0     1.008    4.446607    4.602740    6.050903
  14 C     6.0000    0    12.011    6.371915    5.247070    6.378771
  15 H     1.0000    0     1.008    2.872250   -6.209591    2.605726
  16 O     8.0000    0    15.999    4.627465   -0.515342   -3.152536
  17 C     6.0000    0    12.011    5.678296   -0.458215   -0.611011
  18 C     6.0000    0    12.011    4.546585    1.593449    0.961457
  19 C     6.0000    0    12.011    1.839769   -7.422623    1.291531
  20 C     6.0000    0    12.011    0.628684   -5.893408   -0.837202
  21 C     6.0000    0    12.011   -1.140438   -3.852074    0.186474
  22 H     1.0000    0     1.008    4.803638    1.283617    2.976774
  23 H     1.0000    0     1.008   -0.421137   -7.172716   -2.067867
  24 C     6.0000    0    12.011   -3.241648   -3.473844   -4.193512
  25 C     6.0000    0    12.011   -7.248797   -3.803998    1.240645
  26 C     6.0000    0    12.011  -11.334957    1.077877    0.557171
  27 C     6.0000    0    12.011  -10.184261    3.106901    2.293466
  28 N     7.0000    0    14.007   -4.791969    6.504335    0.139122
  29 H     1.0000    0     1.008    1.285280   -0.403789   -3.090672
  30 H     1.0000    0     1.008    2.805111    6.596340   -2.497109
  31 H     1.0000    0     1.008    3.383912    3.547299   -3.802212
  32 H     1.0000    0     1.008    2.802086    4.976565    1.827669
  33 H     1.0000    0     1.008    6.632086    5.621831    8.381094
  34 H     1.0000    0     1.008    6.689245    6.967175    5.300856
  35 H     1.0000    0     1.008    5.782343   -1.210691   -4.382891
  36 H     1.0000    0     1.008    5.343554   -2.284607    0.291836
  37 H     1.0000    0     1.008    7.726285   -0.188568   -0.716104
  38 H     1.0000    0     1.008    0.406697   -8.426795    2.381165
  39 H     1.0000    0     1.008    3.158647   -8.824088    0.554274
  40 H     1.0000    0     1.008   -2.682886   -4.744945    1.239923
  41 H     1.0000    0     1.008    7.708097    3.806196    5.768929
  42 H     1.0000    0     1.008   -0.117647   -2.659691    1.533647
  43 H     1.0000    0     1.008   -1.676848   -4.408510   -5.146165
  44 H     1.0000    0     1.008    2.103129   -5.038053   -2.010268
  45 H     1.0000    0     1.008   -4.123721   -2.147201   -5.493691
  46 H     1.0000    0     1.008   -4.643702   -4.884464   -3.659925


Checking for AutoStart:
The File: NMR/3_NMR.gbw exists
Trying to determine its content:
     ... Fine, the file contains calculation information
     ... Fine, the calculation information was read
     ... Fine, the file contains a basis set
     ... Fine, the basis set was read
     ... Fine, the file contains a geometry
     ... Fine, the geometry was read
     ... The file does not contain orbitals - skipping AutoStart


           ************************************************************
           *        Program running with 4 parallel MPI-processes     *
           *              working on a common directory               *
           ************************************************************


           ************************************************************
           *        Program running with 4 parallel MPI-processes     *
           *              working on a common directory               *
           ************************************************************

Diagonalization of the overlap matrix:
Smallest eigenvalue                        ... 1.877e-04
Time for diagonalization                   ...    0.021 sec
Threshold for overlap eigenvalues          ... 1.000e-08
Number of eigenvalues below threshold      ... 0
Time for construction of square roots      ...    0.025 sec
Total time needed                          ...    0.047 sec

-------------------
DFT GRID GENERATION
-------------------

General Integration Accuracy     IntAcc      ...  4.340
Radial Grid Type                 RadialGrid  ... Gauss-Chebyshev
Angular Grid (max. acc.)         AngularGrid ... Lebedev-110
Angular grid pruning method      GridPruning ... 3 (G Style)
Weight generation scheme         WeightScheme... Becke
Basis function cutoff            BFCut       ...    1.0000e-11
Integration weight cutoff        WCut        ...    1.0000e-14
Grids for H and He will be reduced by one unit

# of grid points (after initial pruning)     ...  59080 (   0.0 sec)
# of grid points (after weights+screening)   ...  52135 (   0.3 sec)
nearest neighbour list constructed           ...    0.0 sec
Grid point re-assignment to atoms done       ...    0.0 sec
Grid point division into batches done        ...    0.0 sec
Reduced shell lists constructed in    0.2 sec

Total number of grid points                  ...    52135
Total number of batches                      ...      835
Average number of points per batch           ...       62
Average number of grid points per atom       ...     1109
Average number of shells per batch           ...   127.43 (52.87%)
Average number of basis functions per batch  ...   219.70 (56.19%)
Average number of large shells per batch     ...    83.03 (65.16%)
Average number of large basis fcns per batch ...   149.74 (68.16%)
Maximum spatial batch extension              ...  17.74, 17.12, 15.49 au
Average spatial batch extension              ...   0.59,  0.58,  0.66 au

Time for grid setup =    0.582 sec

Loading Hartree-Fock densities                     ... done
Calculating cut-offs                               ... done
Setting up the integral package                    ... done
Initializing the effective Hamiltonian             ... done
Starting the Coulomb interaction                   ... done (   0.3 sec)
Reading the grid                                   ... done
Mapping shells                                     ... done
Starting the XC term evaluation                    ... done (   0.5 sec)
  promolecular density results
     # of electrons  =    177.987188515
     EX              =   -143.069471395
     EC              =     -5.906314430
     EX+EC           =   -148.975785825
Transforming the Hamiltonian                       ... done (   0.0 sec)
Diagonalizing the Hamiltonian                      ... done (   0.0 sec)
Back transforming the eigenvectors                 ... done (   0.0 sec)
Now organizing SCF variables                       ... done
--------------
SCF ITERATIONS
--------------
ITER       Energy         Delta-E        Max-DP      RMS-DP      [F,P]     Damp
               ***  Starting incremental Fock matrix formation  ***
  0  -1072.0190026521   0.000000000000 0.12617767  0.00148571  0.2472037 0.7000
  1  -1072.2165251701  -0.197522517977 0.11423469  0.00115743  0.1336147 0.7000
                               ***Turning on DIIS***
  2  -1072.3177131314  -0.101187961318 0.27876283  0.00254029  0.0647904 0.0000
  3  -1072.4843125668  -0.166599435386 0.06061302  0.00078159  0.0563194 0.0000
  4  -1072.5094370856  -0.025124518782 0.01946296  0.00028480  0.0074318 0.0000
  5  -1072.5105972269  -0.001160141308 0.00848600  0.00013550  0.0062059 0.0000
  6  -1072.5110039753  -0.000406748396 0.00719741  0.00012047  0.0039797 0.0000
                      *** Initiating the SOSCF procedure ***
                           *** Shutting down DIIS ***
                      *** Re-Reading the Fockian ***
                      *** Removing any level shift ***
ITER      Energy       Delta-E        Grad      Rot      Max-DP    RMS-DP
  7  -1072.51125369  -0.0002497098  0.003236  0.003236  0.006767  0.000088
               *** Restarting incremental Fock matrix formation ***
  8  -1072.51140168  -0.0001479923  0.001888  0.007674  0.008851  0.000082
  9  -1072.51150406  -0.0001023801  0.001154  0.018635  0.021652  0.000214
 10  -1072.51156230  -0.0000582394  0.000757  0.003488  0.003466  0.000043
 11  -1072.51159086  -0.0000285588  0.000208  0.001226  0.001762  0.000020
 12  -1072.51159276  -0.0000019020  0.000094  0.000678  0.000703  0.000009
 13  -1072.51159422  -0.0000014644  0.000076  0.000690  0.000391  0.000007
 14  -1072.51159458  -0.0000003598  0.000046  0.000564  0.000196  0.000006
 15  -1072.51159472  -0.0000001422  0.000023  0.000155  0.000218  0.000002
 16  -1072.51159476  -0.0000000355  0.000013  0.000103  0.000084  0.000001
 17  -1072.51159478  -0.0000000155  0.000006  0.000076  0.000036  0.000001
 18  -1072.51159478  -0.0000000075  0.000003  0.000043  0.000038  0.000000
                  ***Gradient check signals convergence***
              ***Rediagonalizing the Fockian in SOSCF/NRSCF***

               *****************************************************
               *                     SUCCESS                       *
               *           SCF CONVERGED AFTER  19 CYCLES          *
               *****************************************************

Setting up the final grid:

General Integration Accuracy     IntAcc      ...  4.670
Radial Grid Type                 RadialGrid  ... Gauss-Chebyshev
Angular Grid (max. acc.)         AngularGrid ... Lebedev-302
Angular grid pruning method      GridPruning ... 3 (G Style)
Weight generation scheme         WeightScheme... Becke
Basis function cutoff            BFCut       ...    1.0000e-11
Integration weight cutoff        WCut        ...    1.0000e-14
Grids for H and He will be reduced by one unit

# of grid points (after initial pruning)     ... 229968 (   0.0 sec)
# of grid points (after weights+screening)   ... 197906 (   1.0 sec)
nearest neighbour list constructed           ...    0.0 sec
Grid point re-assignment to atoms done       ...    0.0 sec
Grid point division into batches done        ...    0.7 sec
Reduced shell lists constructed in    1.2 sec

Total number of grid points                  ...   197906
Total number of batches                      ...     3116
Average number of points per batch           ...       63
Average number of grid points per atom       ...     4211
Average number of shells per batch           ...   115.96 (48.12%)
Average number of basis functions per batch  ...   200.66 (51.32%)
Average number of large shells per batch     ...    74.33 (64.10%)
Average number of large basis fcns per batch ...   134.76 (67.16%)
Maximum spatial batch extension              ...  17.37, 21.44, 20.21 au
Average spatial batch extension              ...   0.43,  0.42,  0.45 au

Final grid set up in    2.3 sec
Final integration                            ... done (   0.8 sec)
Change in XC energy                          ...     0.002731700
Integrated number of electrons               ...   178.000574753
Previous integrated no of electrons          ...   178.000220851
Total Energy       :        -1072.50886308 Eh          -29184.44987 eV
  Last Energy change         ...   -7.0486e-10  Tolerance :   1.0000e-08
  Last MAX-Density change    ...    8.0260e-06  Tolerance :   1.0000e-07
             **** THE GBW FILE WAS UPDATED (NMR/3_NMR.gbw) ****
             **** DENSITY FILE WAS UPDATED (NMR/3_NMR.scfp) ****
             **** ENERGY FILE WAS UPDATED (NMR/3_NMR.en.tmp) ****
             **** THE GBW FILE WAS UPDATED (NMR/3_NMR.gbw) ****
             **** DENSITY FILE WAS UPDATED (NMR/3_NMR.scfp) ****
----------------
ORBITAL ENERGIES
----------------

  NO   OCC          E(Eh)            E(eV)
   0   2.0000     -19.336862      -526.1828
   1   2.0000     -19.318446      -525.6816
   2   2.0000     -14.518708      -395.0741
   3   2.0000     -14.447821      -393.1452
   4   2.0000     -10.474642      -285.0295
   5   2.0000     -10.407336      -283.1980
   6   2.0000     -10.396099      -282.8922
   7   2.0000     -10.389187      -282.7041
   8   2.0000     -10.351959      -281.6911
   9   2.0000     -10.345409      -281.5129
  10   2.0000     -10.342000      -281.4201
  11   2.0000     -10.341616      -281.4097
  12   2.0000     -10.341064      -281.3947
  13   2.0000     -10.333254      -281.1821
  14   2.0000     -10.318705      -280.7862
  15   2.0000     -10.315271      -280.6928
  16   2.0000     -10.312124      -280.6072
  17   2.0000     -10.311241      -280.5831
  18   2.0000     -10.307973      -280.4942
  19   2.0000     -10.305648      -280.4309
  20   2.0000     -10.302215      -280.3375
  21   2.0000     -10.294570      -280.1295
  22   2.0000     -10.286993      -279.9233
  23   2.0000     -10.276347      -279.6336
  24   2.0000     -10.273039      -279.5436
  25   2.0000      -1.275968       -34.7209
  26   2.0000      -1.228355       -33.4253
  27   2.0000      -1.158055       -31.5123
  28   2.0000      -1.078124       -29.3372
  29   2.0000      -1.045613       -28.4526
  30   2.0000      -0.995337       -27.0845
  31   2.0000      -0.993622       -27.0378
  32   2.0000      -0.975555       -26.5462
  33   2.0000      -0.939067       -25.5533
  34   2.0000      -0.922242       -25.0955
  35   2.0000      -0.913216       -24.8499
  36   2.0000      -0.885221       -24.0881
  37   2.0000      -0.859044       -23.3758
  38   2.0000      -0.845712       -23.0130
  39   2.0000      -0.838754       -22.8237
  40   2.0000      -0.806277       -21.9399
  41   2.0000      -0.788396       -21.4533
  42   2.0000      -0.757601       -20.6154
  43   2.0000      -0.744762       -20.2660
  44   2.0000      -0.737566       -20.0702
  45   2.0000      -0.729104       -19.8399
  46   2.0000      -0.717011       -19.5109
  47   2.0000      -0.701257       -19.0822
  48   2.0000      -0.695078       -18.9140
  49   2.0000      -0.660383       -17.9699
  50   2.0000      -0.647285       -17.6135
  51   2.0000      -0.643869       -17.5206
  52   2.0000      -0.630314       -17.1517
  53   2.0000      -0.618481       -16.8297
  54   2.0000      -0.610734       -16.6189
  55   2.0000      -0.606484       -16.5033
  56   2.0000      -0.593295       -16.1444
  57   2.0000      -0.584448       -15.9036
  58   2.0000      -0.582530       -15.8514
  59   2.0000      -0.571249       -15.5445
  60   2.0000      -0.556753       -15.1500
  61   2.0000      -0.544713       -14.8224
  62   2.0000      -0.540098       -14.6968
  63   2.0000      -0.532196       -14.4818
  64   2.0000      -0.521991       -14.2041
  65   2.0000      -0.519986       -14.1495
  66   2.0000      -0.516282       -14.0488
  67   2.0000      -0.514650       -14.0043
  68   2.0000      -0.511793       -13.9266
  69   2.0000      -0.506069       -13.7708
  70   2.0000      -0.503789       -13.7088
  71   2.0000      -0.501075       -13.6349
  72   2.0000      -0.488088       -13.2815
  73   2.0000      -0.481250       -13.0955
  74   2.0000      -0.471166       -12.8211
  75   2.0000      -0.466761       -12.7012
  76   2.0000      -0.461498       -12.5580
  77   2.0000      -0.456224       -12.4145
  78   2.0000      -0.439517       -11.9599
  79   2.0000      -0.434299       -11.8179
  80   2.0000      -0.427571       -11.6348
  81   2.0000      -0.414302       -11.2737
  82   2.0000      -0.405443       -11.0327
  83   2.0000      -0.388016       -10.5585
  84   2.0000      -0.386260       -10.5107
  85   2.0000      -0.375323       -10.2130
  86   2.0000      -0.304972        -8.2987
  87   2.0000      -0.264885        -7.2079
  88   2.0000      -0.245298        -6.6749
  89   0.0000      -0.035118        -0.9556
  90   0.0000      -0.016904        -0.4600
  91   0.0000       0.010327         0.2810
  92   0.0000       0.046886         1.2758
  93   0.0000       0.051478         1.4008
  94   0.0000       0.062298         1.6952
  95   0.0000       0.076849         2.0912
  96   0.0000       0.097581         2.6553
  97   0.0000       0.106575         2.9001
  98   0.0000       0.110201         2.9987
  99   0.0000       0.119539         3.2528
 100   0.0000       0.123638         3.3644
 101   0.0000       0.131009         3.5649
 102   0.0000       0.133346         3.6285
 103   0.0000       0.136112         3.7038
 104   0.0000       0.142991         3.8910
 105   0.0000       0.150199         4.0871
 106   0.0000       0.155691         4.2366
 107   0.0000       0.161914         4.4059
 108   0.0000       0.166218         4.5230
 109   0.0000       0.170682         4.6445
 110   0.0000       0.173885         4.7317
 111   0.0000       0.177134         4.8201
 112   0.0000       0.184145         5.0108
 113   0.0000       0.187144         5.0925
 114   0.0000       0.192418         5.2360
 115   0.0000       0.193516         5.2658
 116   0.0000       0.200174         5.4470
 117   0.0000       0.210027         5.7151
 118   0.0000       0.213607         5.8126
 119   0.0000       0.218650         5.9498
 120   0.0000       0.221062         6.0154
 121   0.0000       0.233239         6.3468
 122   0.0000       0.234231         6.3737
 123   0.0000       0.241074         6.5600
 124   0.0000       0.253761         6.9052
 125   0.0000       0.256939         6.9917
 126   0.0000       0.259889         7.0719
 127   0.0000       0.269127         7.3233
 128   0.0000       0.277196         7.5429
 129   0.0000       0.283743         7.7210
 130   0.0000       0.293311         7.9814
 131   0.0000       0.304739         8.2924
 132   0.0000       0.312519         8.5041
 133   0.0000       0.330830         9.0023
 134   0.0000       0.334581         9.1044
 135   0.0000       0.340910         9.2766
 136   0.0000       0.346915         9.4400
 137   0.0000       0.355876         9.6839
 138   0.0000       0.362973         9.8770
 139   0.0000       0.363411         9.8889
 140   0.0000       0.368339        10.0230
 141   0.0000       0.375607        10.2208
 142   0.0000       0.379012        10.3134
 143   0.0000       0.381614        10.3842
 144   0.0000       0.384796        10.4708
 145   0.0000       0.393251        10.7009
 146   0.0000       0.397764        10.8237
 147   0.0000       0.400513        10.8985
 148   0.0000       0.413145        11.2422
 149   0.0000       0.416030        11.3207
 150   0.0000       0.419269        11.4089
 151   0.0000       0.421190        11.4612
 152   0.0000       0.430882        11.7249
 153   0.0000       0.433897        11.8069
 154   0.0000       0.445475        12.1220
 155   0.0000       0.450774        12.2662
 156   0.0000       0.461339        12.5537
 157   0.0000       0.463133        12.6025
 158   0.0000       0.466151        12.6846
 159   0.0000       0.473971        12.8974
 160   0.0000       0.477185        12.9849
 161   0.0000       0.488994        13.3062
 162   0.0000       0.498927        13.5765
 163   0.0000       0.503092        13.6898
 164   0.0000       0.506380        13.7793
 165   0.0000       0.514509        14.0005
 166   0.0000       0.516616        14.0578
 167   0.0000       0.520250        14.1567
 168   0.0000       0.526980        14.3399
 169   0.0000       0.532040        14.4775
 170   0.0000       0.546758        14.8780
 171   0.0000       0.550961        14.9924
 172   0.0000       0.552986        15.0475
 173   0.0000       0.555061        15.1040
 174   0.0000       0.562685        15.3114
 175   0.0000       0.568752        15.4765
 176   0.0000       0.574275        15.6268
 177   0.0000       0.582292        15.8450
 178   0.0000       0.589667        16.0457
 179   0.0000       0.591040        16.0830
 180   0.0000       0.594399        16.1744
 181   0.0000       0.599483        16.3128
 182   0.0000       0.604966        16.4620
 183   0.0000       0.614050        16.7091
 184   0.0000       0.622984        16.9523
 185   0.0000       0.624069        16.9818
 186   0.0000       0.630817        17.1654
 187   0.0000       0.636448        17.3186
 188   0.0000       0.638255        17.3678
 189   0.0000       0.641400        17.4534
 190   0.0000       0.646339        17.5878
 191   0.0000       0.649266        17.6674
 192   0.0000       0.652590        17.7579
 193   0.0000       0.656480        17.8637
 194   0.0000       0.658838        17.9279
 195   0.0000       0.665042        18.0967
 196   0.0000       0.669373        18.2146
 197   0.0000       0.673426        18.3248
 198   0.0000       0.676875        18.4187
 199   0.0000       0.678703        18.4684
 200   0.0000       0.682997        18.5853
 201   0.0000       0.683975        18.6119
 202   0.0000       0.693610        18.8741
 203   0.0000       0.697781        18.9876
 204   0.0000       0.701832        19.0978
 205   0.0000       0.702757        19.1230
 206   0.0000       0.707822        19.2608
 207   0.0000       0.709781        19.3141
 208   0.0000       0.713590        19.4178
 209   0.0000       0.729158        19.8414
 210   0.0000       0.734271        19.9805
 211   0.0000       0.739361        20.1190
 212   0.0000       0.745417        20.2838
 213   0.0000       0.748792        20.3757
 214   0.0000       0.759524        20.6677
 215   0.0000       0.767767        20.8920
 216   0.0000       0.769557        20.9407
 217   0.0000       0.773885        21.0585
 218   0.0000       0.786107        21.3911
 219   0.0000       0.798725        21.7344
 220   0.0000       0.801481        21.8094
 221   0.0000       0.811477        22.0814
 222   0.0000       0.823355        22.4046
 223   0.0000       0.828006        22.5312
 224   0.0000       0.834881        22.7183
 225   0.0000       0.845507        23.0074
 226   0.0000       0.848756        23.0958
 227   0.0000       0.864720        23.5302
 228   0.0000       0.873441        23.7675
 229   0.0000       0.884581        24.0707
 230   0.0000       0.894664        24.3450
 231   0.0000       0.912704        24.8359
 232   0.0000       0.925086        25.1729
 233   0.0000       0.928644        25.2697
 234   0.0000       0.934594        25.4316
 235   0.0000       0.942169        25.6377
 236   0.0000       0.962938        26.2029
 237   0.0000       0.971398        26.4331
 238   0.0000       0.992401        27.0046
 239   0.0000       1.003186        27.2981
 240   0.0000       1.016490        27.6601
 241   0.0000       1.021398        27.7937
 242   0.0000       1.033327        28.1183
 243   0.0000       1.047765        28.5111
 244   0.0000       1.053301        28.6618
 245   0.0000       1.059690        28.8356
 246   0.0000       1.065462        28.9927
 247   0.0000       1.075053        29.2537
 248   0.0000       1.085963        29.5506
 249   0.0000       1.098116        29.8813
 250   0.0000       1.106190        30.1009
 251   0.0000       1.148658        31.2566
 252   0.0000       1.159473        31.5509
 253   0.0000       1.170457        31.8498
 254   0.0000       1.195439        32.5296
 255   0.0000       1.207251        32.8510
 256   0.0000       1.233166        33.5561
 257   0.0000       1.243014        33.8241
 258   0.0000       1.247586        33.9485
 259   0.0000       1.283121        34.9155
 260   0.0000       1.306929        35.5633
 261   0.0000       1.325801        36.0769
 262   0.0000       1.338267        36.4161
 263   0.0000       1.369345        37.2618
 264   0.0000       1.419409        38.6241
 265   0.0000       1.521263        41.3957
 266   0.0000       1.577605        42.9288
 267   0.0000       1.617660        44.0188
 268   0.0000       1.864845        50.7450
 269   0.0000       2.240891        60.9777
 270   0.0000       2.268924        61.7406
 271   0.0000       2.301943        62.6390
 272   0.0000       2.313479        62.9530
 273   0.0000       2.319599        63.1195
 274   0.0000       2.327939        63.3465
 275   0.0000       2.334144        63.5153
 276   0.0000       2.340698        63.6936
 277   0.0000       2.345559        63.8259
 278   0.0000       2.349021        63.9201
 279   0.0000       2.354541        64.0703
 280   0.0000       2.362650        64.2910
 281   0.0000       2.371901        64.5427
 282   0.0000       2.380194        64.7684
 283   0.0000       2.382796        64.8392
 284   0.0000       2.398661        65.2709
 285   0.0000       2.410730        65.5993
 286   0.0000       2.418233        65.8035
 287   0.0000       2.436197        66.2923
 288   0.0000       2.451432        66.7069
 289   0.0000       2.498354        67.9837
 290   0.0000       2.574147        70.0461
 291   0.0000       2.602423        70.8155
 292   0.0000       2.627019        71.4848
 293   0.0000       2.672015        72.7092
 294   0.0000       2.692956        73.2791
 295   0.0000       2.701454        73.5103
 296   0.0000       2.727581        74.2213
 297   0.0000       2.751430        74.8702
 298   0.0000       2.766736        75.2867
 299   0.0000       2.772412        75.4412
 300   0.0000       2.775879        75.5355
 301   0.0000       2.788106        75.8682
 302   0.0000       2.797336        76.1194
 303   0.0000       2.814625        76.5898
 304   0.0000       2.824187        76.8500
 305   0.0000       2.835934        77.1697
 306   0.0000       2.850622        77.5694
 307   0.0000       2.884132        78.4812
 308   0.0000       2.894480        78.7628
 309   0.0000       2.904180        79.0268
 310   0.0000       2.907823        79.1259
 311   0.0000       2.910640        79.2025
 312   0.0000       2.919647        79.4476
 313   0.0000       2.927233        79.6541
 314   0.0000       2.934755        79.8587
 315   0.0000       2.942025        80.0566
 316   0.0000       2.948651        80.2369
 317   0.0000       2.958921        80.5163
 318   0.0000       2.962810        80.6222
 319   0.0000       2.969293        80.7986
 320   0.0000       2.977324        81.0171
 321   0.0000       2.987055        81.2819
 322   0.0000       2.999414        81.6182
 323   0.0000       3.004060        81.7446
 324   0.0000       3.010003        81.9063
 325   0.0000       3.020099        82.1811
 326   0.0000       3.024510        82.3011
 327   0.0000       3.028987        82.4229
 328   0.0000       3.037360        82.6508
 329   0.0000       3.047874        82.9369
 330   0.0000       3.053523        83.0906
 331   0.0000       3.074052        83.6492
 332   0.0000       3.099400        84.3390
 333   0.0000       3.118560        84.8603
 334   0.0000       3.130977        85.1982
 335   0.0000       3.141933        85.4964
 336   0.0000       3.145298        85.5879
 337   0.0000       3.159949        85.9866
 338   0.0000       3.171127        86.2908
 339   0.0000       3.200585        87.0923
 340   0.0000       3.211622        87.3927
 341   0.0000       3.230183        87.8977
 342   0.0000       3.253663        88.5367
 343   0.0000       3.272291        89.0436
 344   0.0000       3.275731        89.1372
 345   0.0000       3.285483        89.4025
 346   0.0000       3.302931        89.8773
 347   0.0000       3.319795        90.3362
 348   0.0000       3.325646        90.4954
 349   0.0000       3.349149        91.1350
 350   0.0000       3.394801        92.3772
 351   0.0000       3.398469        92.4770
 352   0.0000       3.431984        93.3890
 353   0.0000       3.622118        98.5628
 354   0.0000       3.896623       106.0325
 355   0.0000       3.923408       106.7613
 356   0.0000       4.003270       108.9345
 357   0.0000       4.203940       114.3950
 358   0.0000       4.293560       116.8337
 359   0.0000       4.427352       120.4744
 360   0.0000       4.937063       134.3443
 361   0.0000       4.967897       135.1834
 362   0.0000       5.032576       136.9434
 363   0.0000       5.064668       137.8166
 364   0.0000       5.216855       141.9578
 365   0.0000       5.239070       142.5623
 366   0.0000      23.212897       631.6550
 367   0.0000      23.304194       634.1394
 368   0.0000      23.366501       635.8348
 369   0.0000      23.374127       636.0423
 370   0.0000      23.455609       638.2596
 371   0.0000      23.486117       639.0897
 372   0.0000      23.504094       639.5789
 373   0.0000      23.509381       639.7228
 374   0.0000      23.533472       640.3783
 375   0.0000      23.571777       641.4207
 376   0.0000      23.597624       642.1240
 377   0.0000      23.612797       642.5369
 378   0.0000      23.616454       642.6364
 379   0.0000      23.622136       642.7910
 380   0.0000      23.682126       644.4234
 381   0.0000      23.741410       646.0366
 382   0.0000      23.753679       646.3705
 383   0.0000      23.781375       647.1241
 384   0.0000      23.828520       648.4070
 385   0.0000      23.847533       648.9244
 386   0.0000      23.918570       650.8574
 387   0.0000      35.498738       965.9698
 388   0.0000      35.564722       967.7653
 389   0.0000      49.848079      1356.4352
 390   0.0000      49.951461      1359.2484
Total SCF time: 0 days 0 hours 6 min 29 sec


-------------------------------------------------------------------------------
                          DFT DISPERSION CORRECTION

                              DFTD3 V3.1  Rev 1
                              USING zero damping
-------------------------------------------------------------------------------
-------------------------   ----------------
Dispersion correction           -0.026626433
-------------------------   ----------------


-------------------------   --------------------
FINAL SINGLE POINT ENERGY     -1072.535489516781
-------------------------   --------------------


                            ***************************************
                            *     ORCA property calculations      *
                            ***************************************

                                    ---------------------
                                    Active property flags
                                    ---------------------
   (+) Dipole Moment
   (+) Chemical Shifts
   (+) Nuclear properties (Hyperfine,Quadrupole)


------------------------------------------------------------------------------
                       ORCA ELECTRIC PROPERTIES CALCULATION
------------------------------------------------------------------------------

Dipole Moment Calculation                       ... on
Quadrupole Moment Calculation                   ... off
Polarizability Calculation                      ... off
GBWName                                         ... NMR/3_NMR.gbw
Electron density file                           ... NMR/3_NMR.scfp
The origin for moment calculation is the CENTER OF MASS  = (-1.765920,  0.782046 -0.279439)

-------------
DIPOLE MOMENT
-------------
                                X             Y             Z
Electronic contribution:    -38.08248      16.63685      -8.12221
Nuclear contribution   :     46.29354     -19.03540       6.00919
                        -----------------------------------------
Total Dipole Moment    :      8.21106      -2.39855      -2.11302
                        -----------------------------------------
Magnitude (a.u.)       :      8.81132
Magnitude (Debye)      :     22.39660



--------------------
Rotational spectrum
--------------------

Rotational constants in cm-1:     0.008911     0.006108     0.004460
Rotational constants in MHz :   267.133145   183.115505   133.701611

 Dipole components along the rotational axes:
x,y,z [a.u.] :     8.444946    -1.846065    -1.707135
x,y,z [Debye]:    21.465348    -4.692324    -4.339194




           ************************************************************
           *        Program running with 4 parallel MPI-processes     *
           *              working on a common directory               *
           ************************************************************
------------------------------------------------------------------------------
                                ORCA EPR/NMR CALCULATION
------------------------------------------------------------------------------

GBWName                      ... NMR/3_NMR.gbw
Electron density file        ... NMR/3_NMR.scfp
Spin density file            ... NMR/3_NMR.scfr
Treatment of gauge           ... GIAO (approximations 1/2el = 0,2)
Details of the CP(SCF) procedure:
       Solver   = POPLE
       MaxIter  =    64
       Tolerance=    1.000e-06
       Op-0     =   0- 88 =>  89-390
Multiplicity                 ... 1
g-tensor                     ... 0
NMR chemical shifts          ... 1
Number of nuclei for epr/nmr ... 90
   Nucleus:  13H
       Hyperfine : Isotope=    1 I=   0.500 P= 533.551
       Quadrupole: Isotope=    2 I=   1.000 Q=   0.003
       Spin-Orbit: Zeff=   1.000
       Ncuelar Spin-Spin: Gn=   0.000
       rho(0)=N f(grad)=N a(iso)=N a(dip)=N a(orb)=N sigma(nmr)=Y spin-spin(nmr)=all-N,DSO-N,PSO-N,FC-N,SD-N
   Nucleus:  15H
       Hyperfine : Isotope=    1 I=   0.500 P= 533.551
       Quadrupole: Isotope=    2 I=   1.000 Q=   0.003
       Spin-Orbit: Zeff=   1.000
       Ncuelar Spin-Spin: Gn=   0.000
       rho(0)=N f(grad)=N a(iso)=N a(dip)=N a(orb)=N sigma(nmr)=Y spin-spin(nmr)=all-N,DSO-N,PSO-N,FC-N,SD-N
   Nucleus:  22H
       Hyperfine : Isotope=    1 I=   0.500 P= 533.551
       Quadrupole: Isotope=    2 I=   1.000 Q=   0.003
       Spin-Orbit: Zeff=   1.000
       Ncuelar Spin-Spin: Gn=   0.000
       rho(0)=N f(grad)=N a(iso)=N a(dip)=N a(orb)=N sigma(nmr)=Y spin-spin(nmr)=all-N,DSO-N,PSO-N,FC-N,SD-N
   Nucleus:  23H
       Hyperfine : Isotope=    1 I=   0.500 P= 533.551
       Quadrupole: Isotope=    2 I=   1.000 Q=   0.003
       Spin-Orbit: Zeff=   1.000
       Ncuelar Spin-Spin: Gn=   0.000
       rho(0)=N f(grad)=N a(iso)=N a(dip)=N a(orb)=N sigma(nmr)=Y spin-spin(nmr)=all-N,DSO-N,PSO-N,FC-N,SD-N
   Nucleus:  29H
       Hyperfine : Isotope=    1 I=   0.500 P= 533.551
       Quadrupole: Isotope=    2 I=   1.000 Q=   0.003
       Spin-Orbit: Zeff=   1.000
       Ncuelar Spin-Spin: Gn=   0.000
       rho(0)=N f(grad)=N a(iso)=N a(dip)=N a(orb)=N sigma(nmr)=Y spin-spin(nmr)=all-N,DSO-N,PSO-N,FC-N,SD-N
   Nucleus:  30H
       Hyperfine : Isotope=    1 I=   0.500 P= 533.551
       Quadrupole: Isotope=    2 I=   1.000 Q=   0.003
       Spin-Orbit: Zeff=   1.000
       Ncuelar Spin-Spin: Gn=   0.000
       rho(0)=N f(grad)=N a(iso)=N a(dip)=N a(orb)=N sigma(nmr)=Y spin-spin(nmr)=all-N,DSO-N,PSO-N,FC-N,SD-N
   Nucleus:  31H
       Hyperfine : Isotope=    1 I=   0.500 P= 533.551
       Quadrupole: Isotope=    2 I=   1.000 Q=   0.003
       Spin-Orbit: Zeff=   1.000
       Ncuelar Spin-Spin: Gn=   0.000
       rho(0)=N f(grad)=N a(iso)=N a(dip)=N a(orb)=N sigma(nmr)=Y spin-spin(nmr)=all-N,DSO-N,PSO-N,FC-N,SD-N
   Nucleus:  32H
       Hyperfine : Isotope=    1 I=   0.500 P= 533.551
       Quadrupole: Isotope=    2 I=   1.000 Q=   0.003
       Spin-Orbit: Zeff=   1.000
       Ncuelar Spin-Spin: Gn=   0.000
       rho(0)=N f(grad)=N a(iso)=N a(dip)=N a(orb)=N sigma(nmr)=Y spin-spin(nmr)=all-N,DSO-N,PSO-N,FC-N,SD-N
   Nucleus:  33H
       Hyperfine : Isotope=    1 I=   0.500 P= 533.551
       Quadrupole: Isotope=    2 I=   1.000 Q=   0.003
       Spin-Orbit: Zeff=   1.000
       Ncuelar Spin-Spin: Gn=   0.000
       rho(0)=N f(grad)=N a(iso)=N a(dip)=N a(orb)=N sigma(nmr)=Y spin-spin(nmr)=all-N,DSO-N,PSO-N,FC-N,SD-N
   Nucleus:  34H
       Hyperfine : Isotope=    1 I=   0.500 P= 533.551
       Quadrupole: Isotope=    2 I=   1.000 Q=   0.003
       Spin-Orbit: Zeff=   1.000
       Ncuelar Spin-Spin: Gn=   0.000
       rho(0)=N f(grad)=N a(iso)=N a(dip)=N a(orb)=N sigma(nmr)=Y spin-spin(nmr)=all-N,DSO-N,PSO-N,FC-N,SD-N
   Nucleus:  35H
       Hyperfine : Isotope=    1 I=   0.500 P= 533.551
       Quadrupole: Isotope=    2 I=   1.000 Q=   0.003
       Spin-Orbit: Zeff=   1.000
       Ncuelar Spin-Spin: Gn=   0.000
       rho(0)=N f(grad)=N a(iso)=N a(dip)=N a(orb)=N sigma(nmr)=Y spin-spin(nmr)=all-N,DSO-N,PSO-N,FC-N,SD-N
   Nucleus:  36H
       Hyperfine : Isotope=    1 I=   0.500 P= 533.551
       Quadrupole: Isotope=    2 I=   1.000 Q=   0.003
       Spin-Orbit: Zeff=   1.000
       Ncuelar Spin-Spin: Gn=   0.000
       rho(0)=N f(grad)=N a(iso)=N a(dip)=N a(orb)=N sigma(nmr)=Y spin-spin(nmr)=all-N,DSO-N,PSO-N,FC-N,SD-N
   Nucleus:  37H
       Hyperfine : Isotope=    1 I=   0.500 P= 533.551
       Quadrupole: Isotope=    2 I=   1.000 Q=   0.003
       Spin-Orbit: Zeff=   1.000
       Ncuelar Spin-Spin: Gn=   0.000
       rho(0)=N f(grad)=N a(iso)=N a(dip)=N a(orb)=N sigma(nmr)=Y spin-spin(nmr)=all-N,DSO-N,PSO-N,FC-N,SD-N
   Nucleus:  38H
       Hyperfine : Isotope=    1 I=   0.500 P= 533.551
       Quadrupole: Isotope=    2 I=   1.000 Q=   0.003
       Spin-Orbit: Zeff=   1.000
       Ncuelar Spin-Spin: Gn=   0.000
       rho(0)=N f(grad)=N a(iso)=N a(dip)=N a(orb)=N sigma(nmr)=Y spin-spin(nmr)=all-N,DSO-N,PSO-N,FC-N,SD-N
   Nucleus:  39H
       Hyperfine : Isotope=    1 I=   0.500 P= 533.551
       Quadrupole: Isotope=    2 I=   1.000 Q=   0.003
       Spin-Orbit: Zeff=   1.000
       Ncuelar Spin-Spin: Gn=   0.000
       rho(0)=N f(grad)=N a(iso)=N a(dip)=N a(orb)=N sigma(nmr)=Y spin-spin(nmr)=all-N,DSO-N,PSO-N,FC-N,SD-N
   Nucleus:  40H
       Hyperfine : Isotope=    1 I=   0.500 P= 533.551
       Quadrupole: Isotope=    2 I=   1.000 Q=   0.003
       Spin-Orbit: Zeff=   1.000
       Ncuelar Spin-Spin: Gn=   0.000
       rho(0)=N f(grad)=N a(iso)=N a(dip)=N a(orb)=N sigma(nmr)=Y spin-spin(nmr)=all-N,DSO-N,PSO-N,FC-N,SD-N
   Nucleus:  41H
       Hyperfine : Isotope=    1 I=   0.500 P= 533.551
       Quadrupole: Isotope=    2 I=   1.000 Q=   0.003
       Spin-Orbit: Zeff=   1.000
       Ncuelar Spin-Spin: Gn=   0.000
       rho(0)=N f(grad)=N a(iso)=N a(dip)=N a(orb)=N sigma(nmr)=Y spin-spin(nmr)=all-N,DSO-N,PSO-N,FC-N,SD-N
   Nucleus:  42H
       Hyperfine : Isotope=    1 I=   0.500 P= 533.551
       Quadrupole: Isotope=    2 I=   1.000 Q=   0.003
       Spin-Orbit: Zeff=   1.000
       Ncuelar Spin-Spin: Gn=   0.000
       rho(0)=N f(grad)=N a(iso)=N a(dip)=N a(orb)=N sigma(nmr)=Y spin-spin(nmr)=all-N,DSO-N,PSO-N,FC-N,SD-N
   Nucleus:  43H
       Hyperfine : Isotope=    1 I=   0.500 P= 533.551
       Quadrupole: Isotope=    2 I=   1.000 Q=   0.003
       Spin-Orbit: Zeff=   1.000
       Ncuelar Spin-Spin: Gn=   0.000
       rho(0)=N f(grad)=N a(iso)=N a(dip)=N a(orb)=N sigma(nmr)=Y spin-spin(nmr)=all-N,DSO-N,PSO-N,FC-N,SD-N
   Nucleus:  44H
       Hyperfine : Isotope=    1 I=   0.500 P= 533.551
       Quadrupole: Isotope=    2 I=   1.000 Q=   0.003
       Spin-Orbit: Zeff=   1.000
       Ncuelar Spin-Spin: Gn=   0.000
       rho(0)=N f(grad)=N a(iso)=N a(dip)=N a(orb)=N sigma(nmr)=Y spin-spin(nmr)=all-N,DSO-N,PSO-N,FC-N,SD-N
   Nucleus:  45H
       Hyperfine : Isotope=    1 I=   0.500 P= 533.551
       Quadrupole: Isotope=    2 I=   1.000 Q=   0.003
       Spin-Orbit: Zeff=   1.000
       Ncuelar Spin-Spin: Gn=   0.000
       rho(0)=N f(grad)=N a(iso)=N a(dip)=N a(orb)=N sigma(nmr)=Y spin-spin(nmr)=all-N,DSO-N,PSO-N,FC-N,SD-N
   Nucleus:  46H
       Hyperfine : Isotope=    1 I=   0.500 P= 533.551
       Quadrupole: Isotope=    2 I=   1.000 Q=   0.003
       Spin-Orbit: Zeff=   1.000
       Ncuelar Spin-Spin: Gn=   0.000
       rho(0)=N f(grad)=N a(iso)=N a(dip)=N a(orb)=N sigma(nmr)=Y spin-spin(nmr)=all-N,DSO-N,PSO-N,FC-N,SD-N
   Nucleus:   0C
       Hyperfine : Isotope=   13 I=   0.500 P= 134.190
       Quadrupole: Isotope=   13 I=   0.500 Q=   0.000
       Spin-Orbit: Zeff=   3.600
       Ncuelar Spin-Spin: Gn=   0.000
       rho(0)=N f(grad)=N a(iso)=N a(dip)=N a(orb)=N sigma(nmr)=Y spin-spin(nmr)=all-N,DSO-N,PSO-N,FC-N,SD-N
   Nucleus:   1C
       Hyperfine : Isotope=   13 I=   0.500 P= 134.190
       Quadrupole: Isotope=   13 I=   0.500 Q=   0.000
       Spin-Orbit: Zeff=   3.600
       Ncuelar Spin-Spin: Gn=   0.000
       rho(0)=N f(grad)=N a(iso)=N a(dip)=N a(orb)=N sigma(nmr)=Y spin-spin(nmr)=all-N,DSO-N,PSO-N,FC-N,SD-N
   Nucleus:   2C
       Hyperfine : Isotope=   13 I=   0.500 P= 134.190
       Quadrupole: Isotope=   13 I=   0.500 Q=   0.000
       Spin-Orbit: Zeff=   3.600
       Ncuelar Spin-Spin: Gn=   0.000
       rho(0)=N f(grad)=N a(iso)=N a(dip)=N a(orb)=N sigma(nmr)=Y spin-spin(nmr)=all-N,DSO-N,PSO-N,FC-N,SD-N
   Nucleus:   3C
       Hyperfine : Isotope=   13 I=   0.500 P= 134.190
       Quadrupole: Isotope=   13 I=   0.500 Q=   0.000
       Spin-Orbit: Zeff=   3.600
       Ncuelar Spin-Spin: Gn=   0.000
       rho(0)=N f(grad)=N a(iso)=N a(dip)=N a(orb)=N sigma(nmr)=Y spin-spin(nmr)=all-N,DSO-N,PSO-N,FC-N,SD-N
   Nucleus:   4C
       Hyperfine : Isotope=   13 I=   0.500 P= 134.190
       Quadrupole: Isotope=   13 I=   0.500 Q=   0.000
       Spin-Orbit: Zeff=   3.600
       Ncuelar Spin-Spin: Gn=   0.000
       rho(0)=N f(grad)=N a(iso)=N a(dip)=N a(orb)=N sigma(nmr)=Y spin-spin(nmr)=all-N,DSO-N,PSO-N,FC-N,SD-N
   Nucleus:   5C
       Hyperfine : Isotope=   13 I=   0.500 P= 134.190
       Quadrupole: Isotope=   13 I=   0.500 Q=   0.000
       Spin-Orbit: Zeff=   3.600
       Ncuelar Spin-Spin: Gn=   0.000
       rho(0)=N f(grad)=N a(iso)=N a(dip)=N a(orb)=N sigma(nmr)=Y spin-spin(nmr)=all-N,DSO-N,PSO-N,FC-N,SD-N
   Nucleus:   6C
       Hyperfine : Isotope=   13 I=   0.500 P= 134.190
       Quadrupole: Isotope=   13 I=   0.500 Q=   0.000
       Spin-Orbit: Zeff=   3.600
       Ncuelar Spin-Spin: Gn=   0.000
       rho(0)=N f(grad)=N a(iso)=N a(dip)=N a(orb)=N sigma(nmr)=Y spin-spin(nmr)=all-N,DSO-N,PSO-N,FC-N,SD-N
   Nucleus:   8C
       Hyperfine : Isotope=   13 I=   0.500 P= 134.190
       Quadrupole: Isotope=   13 I=   0.500 Q=   0.000
       Spin-Orbit: Zeff=   3.600
       Ncuelar Spin-Spin: Gn=   0.000
       rho(0)=N f(grad)=N a(iso)=N a(dip)=N a(orb)=N sigma(nmr)=Y spin-spin(nmr)=all-N,DSO-N,PSO-N,FC-N,SD-N
   Nucleus:  10C
       Hyperfine : Isotope=   13 I=   0.500 P= 134.190
       Quadrupole: Isotope=   13 I=   0.500 Q=   0.000
       Spin-Orbit: Zeff=   3.600
       Ncuelar Spin-Spin: Gn=   0.000
       rho(0)=N f(grad)=N a(iso)=N a(dip)=N a(orb)=N sigma(nmr)=Y spin-spin(nmr)=all-N,DSO-N,PSO-N,FC-N,SD-N
   Nucleus:  11C
       Hyperfine : Isotope=   13 I=   0.500 P= 134.190
       Quadrupole: Isotope=   13 I=   0.500 Q=   0.000
       Spin-Orbit: Zeff=   3.600
       Ncuelar Spin-Spin: Gn=   0.000
       rho(0)=N f(grad)=N a(iso)=N a(dip)=N a(orb)=N sigma(nmr)=Y spin-spin(nmr)=all-N,DSO-N,PSO-N,FC-N,SD-N
   Nucleus:  12C
       Hyperfine : Isotope=   13 I=   0.500 P= 134.190
       Quadrupole: Isotope=   13 I=   0.500 Q=   0.000
       Spin-Orbit: Zeff=   3.600
       Ncuelar Spin-Spin: Gn=   0.000
       rho(0)=N f(grad)=N a(iso)=N a(dip)=N a(orb)=N sigma(nmr)=Y spin-spin(nmr)=all-N,DSO-N,PSO-N,FC-N,SD-N
   Nucleus:  14C
       Hyperfine : Isotope=   13 I=   0.500 P= 134.190
       Quadrupole: Isotope=   13 I=   0.500 Q=   0.000
       Spin-Orbit: Zeff=   3.600
       Ncuelar Spin-Spin: Gn=   0.000
       rho(0)=N f(grad)=N a(iso)=N a(dip)=N a(orb)=N sigma(nmr)=Y spin-spin(nmr)=all-N,DSO-N,PSO-N,FC-N,SD-N
   Nucleus:  17C
       Hyperfine : Isotope=   13 I=   0.500 P= 134.190
       Quadrupole: Isotope=   13 I=   0.500 Q=   0.000
       Spin-Orbit: Zeff=   3.600
       Ncuelar Spin-Spin: Gn=   0.000
       rho(0)=N f(grad)=N a(iso)=N a(dip)=N a(orb)=N sigma(nmr)=Y spin-spin(nmr)=all-N,DSO-N,PSO-N,FC-N,SD-N
   Nucleus:  18C
       Hyperfine : Isotope=   13 I=   0.500 P= 134.190
       Quadrupole: Isotope=   13 I=   0.500 Q=   0.000
       Spin-Orbit: Zeff=   3.600
       Ncuelar Spin-Spin: Gn=   0.000
       rho(0)=N f(grad)=N a(iso)=N a(dip)=N a(orb)=N sigma(nmr)=Y spin-spin(nmr)=all-N,DSO-N,PSO-N,FC-N,SD-N
   Nucleus:  19C
       Hyperfine : Isotope=   13 I=   0.500 P= 134.190
       Quadrupole: Isotope=   13 I=   0.500 Q=   0.000
       Spin-Orbit: Zeff=   3.600
       Ncuelar Spin-Spin: Gn=   0.000
       rho(0)=N f(grad)=N a(iso)=N a(dip)=N a(orb)=N sigma(nmr)=Y spin-spin(nmr)=all-N,DSO-N,PSO-N,FC-N,SD-N
   Nucleus:  20C
       Hyperfine : Isotope=   13 I=   0.500 P= 134.190
       Quadrupole: Isotope=   13 I=   0.500 Q=   0.000
       Spin-Orbit: Zeff=   3.600
       Ncuelar Spin-Spin: Gn=   0.000
       rho(0)=N f(grad)=N a(iso)=N a(dip)=N a(orb)=N sigma(nmr)=Y spin-spin(nmr)=all-N,DSO-N,PSO-N,FC-N,SD-N
   Nucleus:  21C
       Hyperfine : Isotope=   13 I=   0.500 P= 134.190
       Quadrupole: Isotope=   13 I=   0.500 Q=   0.000
       Spin-Orbit: Zeff=   3.600
       Ncuelar Spin-Spin: Gn=   0.000
       rho(0)=N f(grad)=N a(iso)=N a(dip)=N a(orb)=N sigma(nmr)=Y spin-spin(nmr)=all-N,DSO-N,PSO-N,FC-N,SD-N
   Nucleus:  24C
       Hyperfine : Isotope=   13 I=   0.500 P= 134.190
       Quadrupole: Isotope=   13 I=   0.500 Q=   0.000
       Spin-Orbit: Zeff=   3.600
       Ncuelar Spin-Spin: Gn=   0.000
       rho(0)=N f(grad)=N a(iso)=N a(dip)=N a(orb)=N sigma(nmr)=Y spin-spin(nmr)=all-N,DSO-N,PSO-N,FC-N,SD-N
   Nucleus:  25C
       Hyperfine : Isotope=   13 I=   0.500 P= 134.190
       Quadrupole: Isotope=   13 I=   0.500 Q=   0.000
       Spin-Orbit: Zeff=   3.600
       Ncuelar Spin-Spin: Gn=   0.000
       rho(0)=N f(grad)=N a(iso)=N a(dip)=N a(orb)=N sigma(nmr)=Y spin-spin(nmr)=all-N,DSO-N,PSO-N,FC-N,SD-N
   Nucleus:  26C
       Hyperfine : Isotope=   13 I=   0.500 P= 134.190
       Quadrupole: Isotope=   13 I=   0.500 Q=   0.000
       Spin-Orbit: Zeff=   3.600
       Ncuelar Spin-Spin: Gn=   0.000
       rho(0)=N f(grad)=N a(iso)=N a(dip)=N a(orb)=N sigma(nmr)=Y spin-spin(nmr)=all-N,DSO-N,PSO-N,FC-N,SD-N
   Nucleus:  27C
       Hyperfine : Isotope=   13 I=   0.500 P= 134.190
       Quadrupole: Isotope=   13 I=   0.500 Q=   0.000
       Spin-Orbit: Zeff=   3.600
       Ncuelar Spin-Spin: Gn=   0.000
       rho(0)=N f(grad)=N a(iso)=N a(dip)=N a(orb)=N sigma(nmr)=Y spin-spin(nmr)=all-N,DSO-N,PSO-N,FC-N,SD-N
   Nucleus:   7N
       Hyperfine : Isotope=   14 I=   1.000 P=  38.568
       Quadrupole: Isotope=   14 I=   1.000 Q=   0.020
       Spin-Orbit: Zeff=   4.550
       Ncuelar Spin-Spin: Gn=   0.000
       rho(0)=N f(grad)=N a(iso)=N a(dip)=N a(orb)=N sigma(nmr)=Y spin-spin(nmr)=all-N,DSO-N,PSO-N,FC-N,SD-N
   Nucleus:  28N
       Hyperfine : Isotope=   14 I=   1.000 P=  38.568
       Quadrupole: Isotope=   14 I=   1.000 Q=   0.020
       Spin-Orbit: Zeff=   4.550
       Ncuelar Spin-Spin: Gn=   0.000
       rho(0)=N f(grad)=N a(iso)=N a(dip)=N a(orb)=N sigma(nmr)=Y spin-spin(nmr)=all-N,DSO-N,PSO-N,FC-N,SD-N
   Nucleus:   9O
       Hyperfine : Isotope=   17 I=   2.500 P= -72.359
       Quadrupole: Isotope=   17 I=   2.500 Q=  -0.026
       Spin-Orbit: Zeff=   5.600
       Ncuelar Spin-Spin: Gn=   0.000
       rho(0)=N f(grad)=N a(iso)=N a(dip)=N a(orb)=N sigma(nmr)=Y spin-spin(nmr)=all-N,DSO-N,PSO-N,FC-N,SD-N
   Nucleus:  16O
       Hyperfine : Isotope=   17 I=   2.500 P= -72.359
       Quadrupole: Isotope=   17 I=   2.500 Q=  -0.026
       Spin-Orbit: Zeff=   5.600
       Ncuelar Spin-Spin: Gn=   0.000
       rho(0)=N f(grad)=N a(iso)=N a(dip)=N a(orb)=N sigma(nmr)=Y spin-spin(nmr)=all-N,DSO-N,PSO-N,FC-N,SD-N
   Nucleus:  13H
       Hyperfine : Isotope=    1 I=   0.500 P= 533.551
       Quadrupole: Isotope=    2 I=   1.000 Q=   0.003
       Spin-Orbit: Zeff=   1.000
       Ncuelar Spin-Spin: Gn=   0.000
       rho(0)=N f(grad)=N a(iso)=N a(dip)=N a(orb)=N sigma(nmr)=N spin-spin(nmr)=all-Y,DSO-N,PSO-N,FC-N,SD-N
   Nucleus:  15H
       Hyperfine : Isotope=    1 I=   0.500 P= 533.551
       Quadrupole: Isotope=    2 I=   1.000 Q=   0.003
       Spin-Orbit: Zeff=   1.000
       Ncuelar Spin-Spin: Gn=   0.000
       rho(0)=N f(grad)=N a(iso)=N a(dip)=N a(orb)=N sigma(nmr)=N spin-spin(nmr)=all-Y,DSO-N,PSO-N,FC-N,SD-N
   Nucleus:  22H
       Hyperfine : Isotope=    1 I=   0.500 P= 533.551
       Quadrupole: Isotope=    2 I=   1.000 Q=   0.003
       Spin-Orbit: Zeff=   1.000
       Ncuelar Spin-Spin: Gn=   0.000
       rho(0)=N f(grad)=N a(iso)=N a(dip)=N a(orb)=N sigma(nmr)=N spin-spin(nmr)=all-Y,DSO-N,PSO-N,FC-N,SD-N
   Nucleus:  23H
       Hyperfine : Isotope=    1 I=   0.500 P= 533.551
       Quadrupole: Isotope=    2 I=   1.000 Q=   0.003
       Spin-Orbit: Zeff=   1.000
       Ncuelar Spin-Spin: Gn=   0.000
       rho(0)=N f(grad)=N a(iso)=N a(dip)=N a(orb)=N sigma(nmr)=N spin-spin(nmr)=all-Y,DSO-N,PSO-N,FC-N,SD-N
   Nucleus:  29H
       Hyperfine : Isotope=    1 I=   0.500 P= 533.551
       Quadrupole: Isotope=    2 I=   1.000 Q=   0.003
       Spin-Orbit: Zeff=   1.000
       Ncuelar Spin-Spin: Gn=   0.000
       rho(0)=N f(grad)=N a(iso)=N a(dip)=N a(orb)=N sigma(nmr)=N spin-spin(nmr)=all-Y,DSO-N,PSO-N,FC-N,SD-N
   Nucleus:  30H
       Hyperfine : Isotope=    1 I=   0.500 P= 533.551
       Quadrupole: Isotope=    2 I=   1.000 Q=   0.003
       Spin-Orbit: Zeff=   1.000
       Ncuelar Spin-Spin: Gn=   0.000
       rho(0)=N f(grad)=N a(iso)=N a(dip)=N a(orb)=N sigma(nmr)=N spin-spin(nmr)=all-Y,DSO-N,PSO-N,FC-N,SD-N
   Nucleus:  31H
       Hyperfine : Isotope=    1 I=   0.500 P= 533.551
       Quadrupole: Isotope=    2 I=   1.000 Q=   0.003
       Spin-Orbit: Zeff=   1.000
       Ncuelar Spin-Spin: Gn=   0.000
       rho(0)=N f(grad)=N a(iso)=N a(dip)=N a(orb)=N sigma(nmr)=N spin-spin(nmr)=all-Y,DSO-N,PSO-N,FC-N,SD-N
   Nucleus:  32H
       Hyperfine : Isotope=    1 I=   0.500 P= 533.551
       Quadrupole: Isotope=    2 I=   1.000 Q=   0.003
       Spin-Orbit: Zeff=   1.000
       Ncuelar Spin-Spin: Gn=   0.000
       rho(0)=N f(grad)=N a(iso)=N a(dip)=N a(orb)=N sigma(nmr)=N spin-spin(nmr)=all-Y,DSO-N,PSO-N,FC-N,SD-N
   Nucleus:  33H
       Hyperfine : Isotope=    1 I=   0.500 P= 533.551
       Quadrupole: Isotope=    2 I=   1.000 Q=   0.003
       Spin-Orbit: Zeff=   1.000
       Ncuelar Spin-Spin: Gn=   0.000
       rho(0)=N f(grad)=N a(iso)=N a(dip)=N a(orb)=N sigma(nmr)=N spin-spin(nmr)=all-Y,DSO-N,PSO-N,FC-N,SD-N
   Nucleus:  34H
       Hyperfine : Isotope=    1 I=   0.500 P= 533.551
       Quadrupole: Isotope=    2 I=   1.000 Q=   0.003
       Spin-Orbit: Zeff=   1.000
       Ncuelar Spin-Spin: Gn=   0.000
       rho(0)=N f(grad)=N a(iso)=N a(dip)=N a(orb)=N sigma(nmr)=N spin-spin(nmr)=all-Y,DSO-N,PSO-N,FC-N,SD-N
   Nucleus:  35H
       Hyperfine : Isotope=    1 I=   0.500 P= 533.551
       Quadrupole: Isotope=    2 I=   1.000 Q=   0.003
       Spin-Orbit: Zeff=   1.000
       Ncuelar Spin-Spin: Gn=   0.000
       rho(0)=N f(grad)=N a(iso)=N a(dip)=N a(orb)=N sigma(nmr)=N spin-spin(nmr)=all-Y,DSO-N,PSO-N,FC-N,SD-N
   Nucleus:  36H
       Hyperfine : Isotope=    1 I=   0.500 P= 533.551
       Quadrupole: Isotope=    2 I=   1.000 Q=   0.003
       Spin-Orbit: Zeff=   1.000
       Ncuelar Spin-Spin: Gn=   0.000
       rho(0)=N f(grad)=N a(iso)=N a(dip)=N a(orb)=N sigma(nmr)=N spin-spin(nmr)=all-Y,DSO-N,PSO-N,FC-N,SD-N
   Nucleus:  37H
       Hyperfine : Isotope=    1 I=   0.500 P= 533.551
       Quadrupole: Isotope=    2 I=   1.000 Q=   0.003
       Spin-Orbit: Zeff=   1.000
       Ncuelar Spin-Spin: Gn=   0.000
       rho(0)=N f(grad)=N a(iso)=N a(dip)=N a(orb)=N sigma(nmr)=N spin-spin(nmr)=all-Y,DSO-N,PSO-N,FC-N,SD-N
   Nucleus:  38H
       Hyperfine : Isotope=    1 I=   0.500 P= 533.551
       Quadrupole: Isotope=    2 I=   1.000 Q=   0.003
       Spin-Orbit: Zeff=   1.000
       Ncuelar Spin-Spin: Gn=   0.000
       rho(0)=N f(grad)=N a(iso)=N a(dip)=N a(orb)=N sigma(nmr)=N spin-spin(nmr)=all-Y,DSO-N,PSO-N,FC-N,SD-N
   Nucleus:  39H
       Hyperfine : Isotope=    1 I=   0.500 P= 533.551
       Quadrupole: Isotope=    2 I=   1.000 Q=   0.003
       Spin-Orbit: Zeff=   1.000
       Ncuelar Spin-Spin: Gn=   0.000
       rho(0)=N f(grad)=N a(iso)=N a(dip)=N a(orb)=N sigma(nmr)=N spin-spin(nmr)=all-Y,DSO-N,PSO-N,FC-N,SD-N
   Nucleus:  40H
       Hyperfine : Isotope=    1 I=   0.500 P= 533.551
       Quadrupole: Isotope=    2 I=   1.000 Q=   0.003
       Spin-Orbit: Zeff=   1.000
       Ncuelar Spin-Spin: Gn=   0.000
       rho(0)=N f(grad)=N a(iso)=N a(dip)=N a(orb)=N sigma(nmr)=N spin-spin(nmr)=all-Y,DSO-N,PSO-N,FC-N,SD-N
   Nucleus:  41H
       Hyperfine : Isotope=    1 I=   0.500 P= 533.551
       Quadrupole: Isotope=    2 I=   1.000 Q=   0.003
       Spin-Orbit: Zeff=   1.000
       Ncuelar Spin-Spin: Gn=   0.000
       rho(0)=N f(grad)=N a(iso)=N a(dip)=N a(orb)=N sigma(nmr)=N spin-spin(nmr)=all-Y,DSO-N,PSO-N,FC-N,SD-N
   Nucleus:  42H
       Hyperfine : Isotope=    1 I=   0.500 P= 533.551
       Quadrupole: Isotope=    2 I=   1.000 Q=   0.003
       Spin-Orbit: Zeff=   1.000
       Ncuelar Spin-Spin: Gn=   0.000
       rho(0)=N f(grad)=N a(iso)=N a(dip)=N a(orb)=N sigma(nmr)=N spin-spin(nmr)=all-Y,DSO-N,PSO-N,FC-N,SD-N
   Nucleus:  43H
       Hyperfine : Isotope=    1 I=   0.500 P= 533.551
       Quadrupole: Isotope=    2 I=   1.000 Q=   0.003
       Spin-Orbit: Zeff=   1.000
       Ncuelar Spin-Spin: Gn=   0.000
       rho(0)=N f(grad)=N a(iso)=N a(dip)=N a(orb)=N sigma(nmr)=N spin-spin(nmr)=all-Y,DSO-N,PSO-N,FC-N,SD-N
   Nucleus:  44H
       Hyperfine : Isotope=    1 I=   0.500 P= 533.551
       Quadrupole: Isotope=    2 I=   1.000 Q=   0.003
       Spin-Orbit: Zeff=   1.000
       Ncuelar Spin-Spin: Gn=   0.000
       rho(0)=N f(grad)=N a(iso)=N a(dip)=N a(orb)=N sigma(nmr)=N spin-spin(nmr)=all-Y,DSO-N,PSO-N,FC-N,SD-N
   Nucleus:  45H
       Hyperfine : Isotope=    1 I=   0.500 P= 533.551
       Quadrupole: Isotope=    2 I=   1.000 Q=   0.003
       Spin-Orbit: Zeff=   1.000
       Ncuelar Spin-Spin: Gn=   0.000
       rho(0)=N f(grad)=N a(iso)=N a(dip)=N a(orb)=N sigma(nmr)=N spin-spin(nmr)=all-Y,DSO-N,PSO-N,FC-N,SD-N
   Nucleus:  46H
       Hyperfine : Isotope=    1 I=   0.500 P= 533.551
       Quadrupole: Isotope=    2 I=   1.000 Q=   0.003
       Spin-Orbit: Zeff=   1.000
       Ncuelar Spin-Spin: Gn=   0.000
       rho(0)=N f(grad)=N a(iso)=N a(dip)=N a(orb)=N sigma(nmr)=N spin-spin(nmr)=all-Y,DSO-N,PSO-N,FC-N,SD-N
   Nucleus:   0C
       Hyperfine : Isotope=   13 I=   0.500 P= 134.190
       Quadrupole: Isotope=   13 I=   0.500 Q=   0.000
       Spin-Orbit: Zeff=   3.600
       Ncuelar Spin-Spin: Gn=   0.000
       rho(0)=N f(grad)=N a(iso)=N a(dip)=N a(orb)=N sigma(nmr)=N spin-spin(nmr)=all-Y,DSO-N,PSO-N,FC-N,SD-N
   Nucleus:   1C
       Hyperfine : Isotope=   13 I=   0.500 P= 134.190
       Quadrupole: Isotope=   13 I=   0.500 Q=   0.000
       Spin-Orbit: Zeff=   3.600
       Ncuelar Spin-Spin: Gn=   0.000
       rho(0)=N f(grad)=N a(iso)=N a(dip)=N a(orb)=N sigma(nmr)=N spin-spin(nmr)=all-Y,DSO-N,PSO-N,FC-N,SD-N
   Nucleus:   2C
       Hyperfine : Isotope=   13 I=   0.500 P= 134.190
       Quadrupole: Isotope=   13 I=   0.500 Q=   0.000
       Spin-Orbit: Zeff=   3.600
       Ncuelar Spin-Spin: Gn=   0.000
       rho(0)=N f(grad)=N a(iso)=N a(dip)=N a(orb)=N sigma(nmr)=N spin-spin(nmr)=all-Y,DSO-N,PSO-N,FC-N,SD-N
   Nucleus:   3C
       Hyperfine : Isotope=   13 I=   0.500 P= 134.190
       Quadrupole: Isotope=   13 I=   0.500 Q=   0.000
       Spin-Orbit: Zeff=   3.600
       Ncuelar Spin-Spin: Gn=   0.000
       rho(0)=N f(grad)=N a(iso)=N a(dip)=N a(orb)=N sigma(nmr)=N spin-spin(nmr)=all-Y,DSO-N,PSO-N,FC-N,SD-N
   Nucleus:   4C
       Hyperfine : Isotope=   13 I=   0.500 P= 134.190
       Quadrupole: Isotope=   13 I=   0.500 Q=   0.000
       Spin-Orbit: Zeff=   3.600
       Ncuelar Spin-Spin: Gn=   0.000
       rho(0)=N f(grad)=N a(iso)=N a(dip)=N a(orb)=N sigma(nmr)=N spin-spin(nmr)=all-Y,DSO-N,PSO-N,FC-N,SD-N
   Nucleus:   5C
       Hyperfine : Isotope=   13 I=   0.500 P= 134.190
       Quadrupole: Isotope=   13 I=   0.500 Q=   0.000
       Spin-Orbit: Zeff=   3.600
       Ncuelar Spin-Spin: Gn=   0.000
       rho(0)=N f(grad)=N a(iso)=N a(dip)=N a(orb)=N sigma(nmr)=N spin-spin(nmr)=all-Y,DSO-N,PSO-N,FC-N,SD-N
   Nucleus:   6C
       Hyperfine : Isotope=   13 I=   0.500 P= 134.190
       Quadrupole: Isotope=   13 I=   0.500 Q=   0.000
       Spin-Orbit: Zeff=   3.600
       Ncuelar Spin-Spin: Gn=   0.000
       rho(0)=N f(grad)=N a(iso)=N a(dip)=N a(orb)=N sigma(nmr)=N spin-spin(nmr)=all-Y,DSO-N,PSO-N,FC-N,SD-N
   Nucleus:   8C
       Hyperfine : Isotope=   13 I=   0.500 P= 134.190
       Quadrupole: Isotope=   13 I=   0.500 Q=   0.000
       Spin-Orbit: Zeff=   3.600
       Ncuelar Spin-Spin: Gn=   0.000
       rho(0)=N f(grad)=N a(iso)=N a(dip)=N a(orb)=N sigma(nmr)=N spin-spin(nmr)=all-Y,DSO-N,PSO-N,FC-N,SD-N
   Nucleus:  10C
       Hyperfine : Isotope=   13 I=   0.500 P= 134.190
       Quadrupole: Isotope=   13 I=   0.500 Q=   0.000
       Spin-Orbit: Zeff=   3.600
       Ncuelar Spin-Spin: Gn=   0.000
       rho(0)=N f(grad)=N a(iso)=N a(dip)=N a(orb)=N sigma(nmr)=N spin-spin(nmr)=all-Y,DSO-N,PSO-N,FC-N,SD-N
   Nucleus:  11C
       Hyperfine : Isotope=   13 I=   0.500 P= 134.190
       Quadrupole: Isotope=   13 I=   0.500 Q=   0.000
       Spin-Orbit: Zeff=   3.600
       Ncuelar Spin-Spin: Gn=   0.000
       rho(0)=N f(grad)=N a(iso)=N a(dip)=N a(orb)=N sigma(nmr)=N spin-spin(nmr)=all-Y,DSO-N,PSO-N,FC-N,SD-N
   Nucleus:  12C
       Hyperfine : Isotope=   13 I=   0.500 P= 134.190
       Quadrupole: Isotope=   13 I=   0.500 Q=   0.000
       Spin-Orbit: Zeff=   3.600
       Ncuelar Spin-Spin: Gn=   0.000
       rho(0)=N f(grad)=N a(iso)=N a(dip)=N a(orb)=N sigma(nmr)=N spin-spin(nmr)=all-Y,DSO-N,PSO-N,FC-N,SD-N
   Nucleus:  14C
       Hyperfine : Isotope=   13 I=   0.500 P= 134.190
       Quadrupole: Isotope=   13 I=   0.500 Q=   0.000
       Spin-Orbit: Zeff=   3.600
       Ncuelar Spin-Spin: Gn=   0.000
       rho(0)=N f(grad)=N a(iso)=N a(dip)=N a(orb)=N sigma(nmr)=N spin-spin(nmr)=all-Y,DSO-N,PSO-N,FC-N,SD-N
   Nucleus:  17C
       Hyperfine : Isotope=   13 I=   0.500 P= 134.190
       Quadrupole: Isotope=   13 I=   0.500 Q=   0.000
       Spin-Orbit: Zeff=   3.600
       Ncuelar Spin-Spin: Gn=   0.000
       rho(0)=N f(grad)=N a(iso)=N a(dip)=N a(orb)=N sigma(nmr)=N spin-spin(nmr)=all-Y,DSO-N,PSO-N,FC-N,SD-N
   Nucleus:  18C
       Hyperfine : Isotope=   13 I=   0.500 P= 134.190
       Quadrupole: Isotope=   13 I=   0.500 Q=   0.000
       Spin-Orbit: Zeff=   3.600
       Ncuelar Spin-Spin: Gn=   0.000
       rho(0)=N f(grad)=N a(iso)=N a(dip)=N a(orb)=N sigma(nmr)=N spin-spin(nmr)=all-Y,DSO-N,PSO-N,FC-N,SD-N
   Nucleus:  19C
       Hyperfine : Isotope=   13 I=   0.500 P= 134.190
       Quadrupole: Isotope=   13 I=   0.500 Q=   0.000
       Spin-Orbit: Zeff=   3.600
       Ncuelar Spin-Spin: Gn=   0.000
       rho(0)=N f(grad)=N a(iso)=N a(dip)=N a(orb)=N sigma(nmr)=N spin-spin(nmr)=all-Y,DSO-N,PSO-N,FC-N,SD-N
   Nucleus:  20C
       Hyperfine : Isotope=   13 I=   0.500 P= 134.190
       Quadrupole: Isotope=   13 I=   0.500 Q=   0.000
       Spin-Orbit: Zeff=   3.600
       Ncuelar Spin-Spin: Gn=   0.000
       rho(0)=N f(grad)=N a(iso)=N a(dip)=N a(orb)=N sigma(nmr)=N spin-spin(nmr)=all-Y,DSO-N,PSO-N,FC-N,SD-N
   Nucleus:  21C
       Hyperfine : Isotope=   13 I=   0.500 P= 134.190
       Quadrupole: Isotope=   13 I=   0.500 Q=   0.000
       Spin-Orbit: Zeff=   3.600
       Ncuelar Spin-Spin: Gn=   0.000
       rho(0)=N f(grad)=N a(iso)=N a(dip)=N a(orb)=N sigma(nmr)=N spin-spin(nmr)=all-Y,DSO-N,PSO-N,FC-N,SD-N
   Nucleus:  24C
       Hyperfine : Isotope=   13 I=   0.500 P= 134.190
       Quadrupole: Isotope=   13 I=   0.500 Q=   0.000
       Spin-Orbit: Zeff=   3.600
       Ncuelar Spin-Spin: Gn=   0.000
       rho(0)=N f(grad)=N a(iso)=N a(dip)=N a(orb)=N sigma(nmr)=N spin-spin(nmr)=all-Y,DSO-N,PSO-N,FC-N,SD-N
   Nucleus:  25C
       Hyperfine : Isotope=   13 I=   0.500 P= 134.190
       Quadrupole: Isotope=   13 I=   0.500 Q=   0.000
       Spin-Orbit: Zeff=   3.600
       Ncuelar Spin-Spin: Gn=   0.000
       rho(0)=N f(grad)=N a(iso)=N a(dip)=N a(orb)=N sigma(nmr)=N spin-spin(nmr)=all-Y,DSO-N,PSO-N,FC-N,SD-N
   Nucleus:  26C
       Hyperfine : Isotope=   13 I=   0.500 P= 134.190
       Quadrupole: Isotope=   13 I=   0.500 Q=   0.000
       Spin-Orbit: Zeff=   3.600
       Ncuelar Spin-Spin: Gn=   0.000
       rho(0)=N f(grad)=N a(iso)=N a(dip)=N a(orb)=N sigma(nmr)=N spin-spin(nmr)=all-Y,DSO-N,PSO-N,FC-N,SD-N
   Nucleus:  27C
       Hyperfine : Isotope=   13 I=   0.500 P= 134.190
       Quadrupole: Isotope=   13 I=   0.500 Q=   0.000
       Spin-Orbit: Zeff=   3.600
       Ncuelar Spin-Spin: Gn=   0.000
       rho(0)=N f(grad)=N a(iso)=N a(dip)=N a(orb)=N sigma(nmr)=N spin-spin(nmr)=all-Y,DSO-N,PSO-N,FC-N,SD-N
Forming RHS of the CP-SCF equations         ...
Calculating right hand sides for GIAO treatment        ...
  Entering RightHandSide GIAO. ScalHFX=    0.1957 NeedHFX=1
     -> 1-electron GIAO integrals will be done analytically
     -> SCF done analytically but RIJCOSX chosen for GIAO calculation.
     Making grid for GIAO integrations   ...
General Integration Accuracy     IntAcc      ...  4.340
Radial Grid Type                 RadialGrid  ... Gauss-Chebyshev
Angular Grid (max. acc.)         AngularGrid ... Lebedev-110
Angular grid pruning method      GridPruning ... 3 (G Style)
Weight generation scheme         WeightScheme... Becke
Basis function cutoff            BFCut       ...    1.0000e-11
Integration weight cutoff        WCut        ...    1.0000e-14
Grids for H and He will be reduced by one unit

# of grid points (after initial pruning)     ...  59080 (   0.0 sec)
# of grid points (after weights+screening)   ...  52135 (   0.2 sec)
nearest neighbour list constructed           ...    0.0 sec
Grid point re-assignment to atoms done       ...    0.0 sec
Grid point division into batches done        ...    0.1 sec
Reduced shell lists constructed in    0.3 sec

Total number of grid points                  ...    52135
Total number of batches                      ...      835
Average number of points per batch           ...       62
Average number of grid points per atom       ...     1109
Average number of shells per batch           ...   127.43 (52.87%)
Average number of basis functions per batch  ...   219.70 (56.19%)
Average number of large shells per batch     ...    83.03 (65.16%)
Average number of large basis fcns per batch ...   149.74 (68.16%)
Maximum spatial batch extension              ...  17.74, 17.12, 15.49 au
Average spatial batch extension              ...   0.59,  0.58,  0.66 au

done
  One-electron GIAO integrals             ... done
  Calculating G(B)[P]                     ... (RI-J: P(aux)-ok J-RI-ok) (COSX-ok) (add-J+K:ok) => dG/dB done
  DFT XC-terms                            ... done
  Extracting occupied and virtual blocks  ...
  Operator  0  NO=  89 NV= 302
  Transforming and RHS contribution       ... done
  Adding eps_i * S(B)_ai terms            ... done
  Projecting overlap derivatives          ... done
  Building G[dS/dB_ij] (Direct)           ... done
  Transforming to MO basis                ... done
  Summing G[dS/dB_ij] into RHS contribs.  ... done

  GIAO profiling information:
    Total GIAO time               ...      83.7 sec
       GIAO 1-electron integrals  ...       0.1 sec (  0.1%)
       GIAO G(dS/dB) terms        ...      45.7 sec ( 54.6%)
       GIAO RI-J                  ...      12.7 sec ( 15.2%)
       GIAO COSX                  ...      21.4 sec ( 25.6%)
       GIAO XC-terms              ...       2.7 sec (  3.2%)
       Right hand side assembly   ...       0.0 sec (  0.0%)

  GIAO right hand side done


------------------------------------------------------------------------------
                           ORCA CP-SCF CALCULATION
------------------------------------------------------------------------------

Input orbitals are from        ... NMR/3_NMR.gbw
Input Perturbation             ... NMR/3_NMR.pin.tmp
Wavefunction output            ... NMR/3_NMR.pout.tmp
Perturbation mode              ... Imaginary perturbation
Solver                         ... POPLE
Max. number of iterations      ... 64
Convergence tolerance          ... 1.000e-06
Integral handling              ... Direct
Number of perturbations        ... 3
Number of operators            ... 1
Orbital ranges used for CP-SCF:
 Operator 0:  Orbitals   0... 88  to  89...390
DFT calculation                         ... on
Variables per vector in CP-SCF ... 26878
Number of vectors sought       ... 3
     CP-SCF ITERATION   0:
     CP-SCF ITERATION   1:      0.001116715953
     CP-SCF ITERATION   2:      0.000006022160
     CP-SCF ITERATION   3:      0.000000013474

Forming final perturbed densities           ... done
Transforming perturbed density to AO basis  ... done

Magnetic field perturbation calculated in 158.171 sec

---------------
CHEMICAL SHIFTS
---------------

Note: using conversion factor for au to ppm alpha^2/2 =   26.625677252
GIAO: Doing para- and diamagnetic shielding integrals analytically     ...done
 --------------
 Nucleus  13H :
 --------------

Diamagnetic contribution to the shielding tensor (ppm) :
            37.685          2.561         1.195
             5.033         28.707         2.713
             7.271          5.431        33.211

Paramagnetic contribution to the shielding tensor (ppm):
             2.813         -3.089        -3.611
            -2.123          8.318        -2.730
            -4.065         -0.644         9.348

Total shielding tensor (ppm):
            40.498         -0.528        -2.415
             2.910         37.025        -0.017
             3.206          4.787        42.559


 Diagonalized sT*s matrix:

 sDSO            26.234           34.775           38.594  iso=      33.201
 sPSO             9.696            5.737            5.046  iso=       6.826
        ---------------  ---------------  ---------------
 Total           35.930           40.511           43.640  iso=      40.027

 --------------
 Nucleus  15H :
 --------------

Diamagnetic contribution to the shielding tensor (ppm) :
            24.904          0.251        10.674
             0.531         30.169         2.023
            11.648         -1.120        30.782

Paramagnetic contribution to the shielding tensor (ppm):
            11.751         -4.399        -5.702
             0.892          4.070         0.226
            -5.760         -3.525        12.516

Total shielding tensor (ppm):
[...]

================================
Nucleus = C   26 interacts with:
 N 7 O 9 O 16 C 27 N 28
================================

(analytic-AO-ints)Solving PSO CP-SCF equations                       ...
     CP-SCF ITERATION   0:
     CP-SCF ITERATION   1:      0.000402975909
     CP-SCF ITERATION   2:      0.000001207880
     CP-SCF ITERATION   3:      0.000000802916
Returned from CP-SCF (  54.0 sec)
Processing PSO nuclei : N 7  O 9  O 16  C 27  N 28  done (   0.1 sec)
Solving FC/SD CP-SCF equations                       ...
     CP-SCF ITERATION   0:
     CP-SCF ITERATION   1:      0.868078056025
     CP-SCF ITERATION   2:      0.559028755462
     CP-SCF ITERATION   3:      0.586381640586
     CP-SCF ITERATION   4:      0.404034020064
     CP-SCF ITERATION   5:      0.124399415517
     CP-SCF ITERATION   6:      0.035948515862
     CP-SCF ITERATION   7:      0.012868612814
     CP-SCF ITERATION   8:      0.005779917238
     CP-SCF ITERATION   9:      0.002666372248
     CP-SCF ITERATION  10:      0.000904953900
     CP-SCF ITERATION  11:      0.000236126892
     CP-SCF ITERATION  12:      0.000219066676
     CP-SCF ITERATION  13:      0.000208575860
     CP-SCF ITERATION  14:      0.000163358485
     CP-SCF ITERATION  15:      0.000099024929
     CP-SCF ITERATION  16:      0.000057729816
     CP-SCF ITERATION  17:      0.000036703855
     CP-SCF ITERATION  18:      0.000017109482
     CP-SCF ITERATION  19:      0.000003582791
     CP-SCF ITERATION  20:      0.027557557274
     CP-SCF ITERATION  21:      0.000001463592
     CP-SCF ITERATION  22:      0.000000642217
Returned from CP-SCF (2959.5 sec)
Processing FC/SD nuclei : N 7  O 9  O 16  C 27  N 28  done (   0.0 sec)

-----------------------------------------------------------
 NUCLEUS A = C   26 NUCLEUS B = N    7
 ( 13C  gnA =  1.405  14N  gnB =  0.404) r(AB) =     5.9765
-----------------------------------------------------------

Diamagnetic contribution (Hz):
        0.0202        -0.0024       -0.0062
       -0.0076        -0.0322        0.0005
       -0.0193         0.0003       -0.0232
Paramagnetic contribution (Hz):
       -0.0162        -0.0027       -0.0043
       -0.0060         0.0171        0.0031
       -0.0136         0.0066        0.0104
Fermi-contact contribution (Hz):
        0.1627         0.0000        0.0000
        0.0000         0.1627        0.0000
        0.0000         0.0000        0.1627
Spin-dipolar contribution (Hz):
        1.6110         1.2582        1.6239
        1.3128         0.4457       -0.6200
        0.0437        -0.5249        2.5699
Spin-dipolar/Fermi contact cross term contribution (Hz):
        0.1944         0.4876       -0.5405
        0.4876         0.2443       -0.1744
       -0.5405        -0.1744       -0.4388

Total spin-spin coupling tensor  (Hz):
        1.9722         1.7406        1.0729
        1.7868         0.8377       -0.7908
       -0.5297        -0.6923        2.2811

 Diagonalized sT*s matrix:

 ssDSO           -0.009           -0.026           -0.001  iso=      -0.012
 ssPSO            0.009            0.009           -0.007  iso=       0.004
 ssFC             0.163            0.163            0.163  iso=       0.163
 ssSD            -0.369            2.657            2.339  iso=       1.542
 ssSD/FC         -0.241           -0.566            0.807  iso=      -0.000
        ---------------  ---------------  ---------------  ----------------
 Total           -0.447            2.237            3.301  iso=       1.697


-----------------------------------------------------------
 NUCLEUS A = C   26 NUCLEUS B = O    9
 ( 13C  gnA =  1.405  17O  gnB = -0.758) r(AB) =     6.3032
-----------------------------------------------------------

Diamagnetic contribution (Hz):
       -0.0247        -0.0175        0.0063
       -0.0399         0.0421        0.0075
        0.0279         0.0079        0.0388
Paramagnetic contribution (Hz):
        0.0186        -0.0087        0.0061
       -0.0195        -0.0257        0.0043
        0.0119         0.0022       -0.0170
Fermi-contact contribution (Hz):
       -0.1431        -0.0000       -0.0000
       -0.0000        -0.1431       -0.0000
       -0.0000        -0.0000       -0.1431
Spin-dipolar contribution (Hz):
       -0.6654        -0.8995       -1.9134
       -1.0540        -0.3029       -0.3741
        0.6227         0.5096       -1.5278
Spin-dipolar/Fermi contact cross term contribution (Hz):
       -0.2571        -0.6377        0.6429
       -0.6377        -0.2661        0.2208
        0.6429         0.2208        0.5235

Total spin-spin coupling tensor  (Hz):
       -1.0716        -1.5634       -1.2580
       -1.7511        -0.6956       -0.1415
        1.3054         0.7406       -1.1255

 Diagonalized sT*s matrix:

 ssDSO            0.049            0.029           -0.022  iso=       0.019
 ssPSO            0.001           -0.016           -0.009  iso=      -0.008
 ssFC            -0.143           -0.143           -0.143  iso=      -0.143
 ssSD            -0.025           -0.865           -1.605  iso=      -0.832
 ssSD/FC          0.468            0.200           -0.668  iso=       0.000
        ---------------  ---------------  ---------------  ----------------
 Total            0.349           -0.795           -2.447  iso=      -0.964


-----------------------------------------------------------
 NUCLEUS A = C   26 NUCLEUS B = O   16
 ( 13C  gnA =  1.405  17O  gnB = -0.758) r(AB) =     8.7130
-----------------------------------------------------------

Diamagnetic contribution (Hz):
       -0.0127         0.0010        0.0042
        0.0064         0.0297       -0.0003
        0.0159        -0.0002        0.0250
Paramagnetic contribution (Hz):
        0.0067         0.0010        0.0012
        0.0046        -0.0130       -0.0008
        0.0087        -0.0005       -0.0098
Fermi-contact contribution (Hz):
        0.0053        -0.0000       -0.0000
       -0.0000         0.0053       -0.0000
       -0.0000        -0.0000        0.0053
Spin-dipolar contribution (Hz):
       -0.0037        -0.0104        0.0039
        0.0080        -0.0155       -0.0055
        0.0016         0.0137        0.0097
Spin-dipolar/Fermi contact cross term contribution (Hz):
        0.0001        -0.0094        0.0043
       -0.0094        -0.0053        0.0024
        0.0043         0.0024        0.0044

Total spin-spin coupling tensor  (Hz):
       -0.0043        -0.0178        0.0136
        0.0097         0.0012       -0.0042
        0.0305         0.0154        0.0347

 Diagonalized sT*s matrix:

 ssDSO           -0.001            0.023            0.021  iso=       0.014
 ssPSO           -0.008           -0.010            0.002  iso=      -0.005
 ssFC             0.005            0.005            0.005  iso=       0.005
 ssSD            -0.004           -0.011            0.006  iso=      -0.003
 ssSD/FC          0.005           -0.009            0.003  iso=      -0.000
        ---------------  ---------------  ---------------  ----------------
 Total           -0.003           -0.002            0.037  iso=       0.011


-----------------------------------------------------------
 NUCLEUS A = C   26 NUCLEUS B = C   27
 ( 13C  gnA =  1.405  13C  gnB =  1.405) r(AB) =     1.5388
-----------------------------------------------------------

Diamagnetic contribution (Hz):
       -0.5643         1.0790        0.9786
        0.8477         0.6948        1.4059
        0.7591         1.3680        0.3065
Paramagnetic contribution (Hz):
       -7.5767        -3.2187       -4.6821
        0.7594        -1.2839        0.2403
       -2.9573         1.4658       -3.2123
Fermi-contact contribution (Hz):
      -22.5643         0.0000        0.0000
        0.0000       -22.5643        0.0000
        0.0000         0.0000      -22.5643
Spin-dipolar contribution (Hz):
        0.6136         2.1761       -5.0848
        0.8665         2.1532       -1.3188
       -1.6039        -1.9991       -1.6297
Spin-dipolar/Fermi contact cross term contribution (Hz):
        6.8627         0.4637      -10.1951
        0.4637         2.0479       -2.4182
      -10.1951        -2.4182       -8.9135

Total spin-spin coupling tensor  (Hz):
      -23.2291         0.5001      -18.9834
        2.9373       -18.9523       -2.0907
      -13.9972        -1.5835      -36.0133

 Diagonalized sT*s matrix:

 ssDSO           -0.849            0.354            0.932  iso=       0.146
 ssPSO           -3.633           -0.588           -7.852  iso=      -4.024
 ssFC           -22.564          -22.564          -22.564  iso=     -22.564
 ssSD             4.290            0.879           -4.032  iso=       0.379
 ssSD/FC         11.532            2.204          -13.739  iso=      -0.001
        ---------------  ---------------  ---------------  ----------------
 Total          -11.224          -19.715          -47.255  iso=     -26.065


-----------------------------------------------------------
 NUCLEUS A = C   26 NUCLEUS B = N   28
 ( 13C  gnA =  1.405  14N  gnB =  0.404) r(AB) =     4.5037
-----------------------------------------------------------

Diamagnetic contribution (Hz):
        0.0099         0.0585       -0.0023
        0.0305        -0.0083       -0.0040
        0.0043        -0.0003       -0.0349
Paramagnetic contribution (Hz):
       -0.0082         0.0130       -0.0010
        0.0459         0.0038       -0.0067
        0.0175         0.0023        0.0300
Fermi-contact contribution (Hz):
       -0.1235         0.0000        0.0000
        0.0000        -0.1235        0.0000
        0.0000         0.0000       -0.1235
Spin-dipolar contribution (Hz):
        0.0593         0.0631        0.0849
        0.0607         0.0565        0.0108
        0.0347        -0.0769        0.1000
Spin-dipolar/Fermi contact cross term contribution (Hz):
       -0.0527         0.1559       -0.1311
        0.1559         0.1597       -0.0984
       -0.1311        -0.0984       -0.1072

Total spin-spin coupling tensor  (Hz):
       -0.1152         0.2905       -0.0495
        0.2930         0.0882       -0.0982
       -0.0746        -0.1733       -0.1356

 Diagonalized sT*s matrix:

 ssDSO           -0.033           -0.018            0.018  iso=      -0.011
 ssPSO            0.032           -0.025            0.019  iso=       0.009
 ssFC            -0.124           -0.124           -0.124  iso=      -0.124
 ssSD             0.119            0.004            0.092  iso=       0.072
 ssSD/FC         -0.147           -0.090            0.237  iso=      -0.000
        ---------------  ---------------  ---------------  ----------------
 Total           -0.153           -0.252            0.243  iso=      -0.054

================================
Nucleus = C   27 interacts with:
 N 7 O 9 O 16 N 28
================================

(analytic-AO-ints)Solving PSO CP-SCF equations                       ...
     CP-SCF ITERATION   0:
     CP-SCF ITERATION   1:      0.000463394311
     CP-SCF ITERATION   2:      0.000002066871
     CP-SCF ITERATION   3:      0.000000267040
Returned from CP-SCF (  63.1 sec)
Processing PSO nuclei : N 7  O 9  O 16  N 28  done (   0.1 sec)
Solving FC/SD CP-SCF equations                       ...
     CP-SCF ITERATION   0:
     CP-SCF ITERATION   1:      0.461602838186
     CP-SCF ITERATION   2:      0.144450151728
     CP-SCF ITERATION   3:      0.052052533055
     CP-SCF ITERATION   4:      0.027766491298
     CP-SCF ITERATION   5:      0.025562292007
     CP-SCF ITERATION   6:      0.019862604988
     CP-SCF ITERATION   7:      0.018229541996
     CP-SCF ITERATION   8:      0.009301912718
     CP-SCF ITERATION   9:      0.004205564457
     CP-SCF ITERATION  10:      0.001248960861
     CP-SCF ITERATION  11:      0.000345452530
     CP-SCF ITERATION  12:      0.000107745313
     CP-SCF ITERATION  13:      0.000089378299
     CP-SCF ITERATION  14:      0.000053098588
     CP-SCF ITERATION  15:      0.000054377764
     CP-SCF ITERATION  16:      0.000044382649
     CP-SCF ITERATION  17:      0.000030500025
     CP-SCF ITERATION  18:      0.000011572286
     CP-SCF ITERATION  19:      0.001768625301
     CP-SCF ITERATION  20:      0.000000707673
Returned from CP-SCF (2609.6 sec)
Processing FC/SD nuclei : N 7  O 9  O 16  N 28  done (   0.0 sec)

-----------------------------------------------------------
 NUCLEUS A = C   27 NUCLEUS B = N    7
 ( 13C  gnA =  1.405  14N  gnB =  0.404) r(AB) =     5.9518
-----------------------------------------------------------

Diamagnetic contribution (Hz):
        0.0069        -0.0167       -0.0227
       -0.0146        -0.0296        0.0075
       -0.0194         0.0075       -0.0161
Paramagnetic contribution (Hz):
       -0.0148        -0.0047       -0.0086
        0.0019         0.0024        0.0029
        0.0011         0.0059        0.0056
Fermi-contact contribution (Hz):
       -0.4157         0.0000        0.0000
        0.0000        -0.4157        0.0000
        0.0000         0.0000       -0.4157
Spin-dipolar contribution (Hz):
        0.0540        -0.2999        0.1182
       -0.4410         0.1986       -0.1013
        0.1830         0.2345        0.4077
Spin-dipolar/Fermi contact cross term contribution (Hz):
       -0.1670        -0.1057        0.2709
       -0.1057        -0.1868        0.0743
        0.2709         0.0743        0.3540

Total spin-spin coupling tensor  (Hz):
       -0.5367        -0.4270        0.3577
       -0.5594        -0.4311       -0.0165
        0.4355         0.3221        0.3354

 Diagonalized sT*s matrix:

 ssDSO            0.000           -0.018           -0.021  iso=      -0.013
 ssPSO           -0.002            0.005           -0.010  iso=      -0.002
 ssFC            -0.416           -0.416           -0.416  iso=      -0.416
 ssSD             0.500            0.425           -0.265  iso=       0.220
 ssSD/FC         -0.083            0.385           -0.301  iso=       0.000
        ---------------  ---------------  ---------------  ----------------
 Total           -0.001            0.381           -1.012  iso=      -0.211


-----------------------------------------------------------
 NUCLEUS A = C   27 NUCLEUS B = O    9
 ( 13C  gnA =  1.405  17O  gnB = -0.758) r(AB) =     5.8399
-----------------------------------------------------------

Diamagnetic contribution (Hz):
       -0.0245         0.0049        0.0413
       -0.0279         0.0537        0.0162
        0.0373         0.0001        0.0214
Paramagnetic contribution (Hz):
        0.0198         0.0040        0.0223
       -0.0268        -0.0235        0.0101
        0.0166        -0.0037       -0.0093
Fermi-contact contribution (Hz):
        0.5266        -0.0000       -0.0000
       -0.0000         0.5266       -0.0000
       -0.0000        -0.0000        0.5266
Spin-dipolar contribution (Hz):
       -0.0166         0.2381       -0.0397
        0.2735        -0.1704        0.2147
       -0.0363        -0.1502       -0.3232
Spin-dipolar/Fermi contact cross term contribution (Hz):
        0.1708         0.1515       -0.0434
        0.1515         0.1205       -0.0953
       -0.0434        -0.0953       -0.2902

Total spin-spin coupling tensor  (Hz):
        0.6761         0.3984       -0.0194
        0.3703         0.5069        0.1458
       -0.0258        -0.2490       -0.0748

 Diagonalized sT*s matrix:

 ssDSO            0.037            0.008            0.005  iso=       0.017
 ssPSO           -0.001           -0.004           -0.008  iso=      -0.004
 ssFC             0.527            0.527            0.527  iso=       0.527
 ssSD            -0.370           -0.305            0.164  iso=      -0.170
 ssSD/FC         -0.180           -0.097            0.277  iso=       0.000
        ---------------  ---------------  ---------------  ----------------
 Total            0.013            0.129            0.966  iso=       0.369


-----------------------------------------------------------
 NUCLEUS A = C   27 NUCLEUS B = O   16
 ( 13C  gnA =  1.405  17O  gnB = -0.758) r(AB) =     8.5682
-----------------------------------------------------------

Diamagnetic contribution (Hz):
       -0.0053         0.0126        0.0184
        0.0099         0.0280       -0.0042
        0.0165        -0.0047        0.0203
Paramagnetic contribution (Hz):
        0.0025         0.0052        0.0072
        0.0046        -0.0126       -0.0030
        0.0095        -0.0028       -0.0086
Fermi-contact contribution (Hz):
        0.0095        -0.0000       -0.0000
       -0.0000         0.0095       -0.0000
       -0.0000        -0.0000        0.0095
Spin-dipolar contribution (Hz):
        0.0037         0.0002       -0.0016
       -0.0049         0.0037        0.0017
       -0.0009         0.0001        0.0017
Spin-dipolar/Fermi contact cross term contribution (Hz):
       -0.0005         0.0030       -0.0027
        0.0030         0.0003        0.0030
       -0.0027         0.0030        0.0002

Total spin-spin coupling tensor  (Hz):
        0.0100         0.0210        0.0214
        0.0126         0.0289       -0.0025
        0.0224        -0.0044        0.0231

 Diagonalized sT*s matrix:

 ssDSO           -0.016            0.028            0.031  iso=       0.014
 ssPSO           -0.012           -0.007           -0.000  iso=      -0.006
 ssFC             0.010            0.010            0.010  iso=       0.010
 ssSD             0.005            0.003            0.001  iso=       0.003
 ssSD/FC          0.002           -0.004            0.002  iso=      -0.000
        ---------------  ---------------  ---------------  ----------------
 Total           -0.011            0.029            0.044  iso=       0.021


-----------------------------------------------------------
 NUCLEUS A = C   27 NUCLEUS B = N   28
 ( 13C  gnA =  1.405  14N  gnB =  0.404) r(AB) =     3.5601
-----------------------------------------------------------

Diamagnetic contribution (Hz):
        0.0425         0.0713       -0.0246
        0.0286        -0.0200       -0.0141
       -0.0382        -0.0397       -0.0188
Paramagnetic contribution (Hz):
       -0.0152         0.0220       -0.0045
        0.0265        -0.0016       -0.0244
       -0.0060        -0.0035        0.0066
Fermi-contact contribution (Hz):
       -0.2623         0.0000        0.0000
        0.0000        -0.2623        0.0000
        0.0000         0.0000       -0.2623
Spin-dipolar contribution (Hz):
        0.0157         0.0380        0.0076
        0.0000        -0.0116        0.0058
       -0.0210         0.0004       -0.0592
Spin-dipolar/Fermi contact cross term contribution (Hz):
        0.0292        -0.0092       -0.0205
       -0.0092         0.1324        0.1595
       -0.0205         0.1595       -0.1608

Total spin-spin coupling tensor  (Hz):
       -0.1901         0.1221       -0.0420
        0.0459        -0.1632        0.1268
       -0.0857         0.1167       -0.4946

 Diagonalized sT*s matrix:

 ssDSO            0.048           -0.024           -0.021  iso=       0.001
 ssPSO            0.014           -0.030            0.007  iso=      -0.003
 ssFC            -0.262           -0.262           -0.262  iso=      -0.262
 ssSD             0.018           -0.016           -0.057  iso=      -0.018
 ssSD/FC          0.097            0.126           -0.221  iso=       0.000
        ---------------  ---------------  ---------------  ----------------
 Total           -0.086           -0.206           -0.556  iso=      -0.283


Timings for individual modules:

Sum of individual times         ...    78382.774 sec (=1306.380 min)
GTO integral calculation        ...        0.684 sec (=   0.011 min)   0.0 %
SCF iterations                  ...      390.107 sec (=   6.502 min)   0.5 %
EPR/NMR calculation             ...    77991.983 sec (=1299.866 min)  99.5 %
                             ****ORCA TERMINATED NORMALLY****
TOTAL RUN TIME: 0 days 21 hours 46 minutes 23 seconds 144 msec
