 Entering Gaussian System, Link 0=g09
 Input=optcom/Paclitaxel-Marvin_1_OPT.com
 Output=optcom/Paclitaxel-Marvin_1_OPT.log
 Initial command:
 /cm/shared/apps/Gaussian09/g09/l1.exe "/local/Gau-127111.inp" -scrdir="/local/"
 Entering Link 1 = /cm/shared/apps/Gaussian09/g09/l1.exe PID=    127112.
  
 Copyright (c) 1988,1990,1992,1993,1995,1998,2003,2009,2013,
            Gaussian, Inc.  All Rights Reserved.
  
 This is part of the Gaussian(R) 09 program.  It is based on
 the Gaussian(R) 03 system (copyright 2003, Gaussian, Inc.),
 the Gaussian(R) 98 system (copyright 1998, Gaussian, Inc.),
 the Gaussian(R) 94 system (copyright 1995, Gaussian, Inc.),
 the Gaussian 92(TM) system (copyright 1992, Gaussian, Inc.),
 the Gaussian 90(TM) system (copyright 1990, Gaussian, Inc.),
 the Gaussian 88(TM) system (copyright 1988, Gaussian, Inc.),
 the Gaussian 86(TM) system (copyright 1986, Carnegie Mellon
 University), and the Gaussian 82(TM) system (copyright 1983,
 Carnegie Mellon University). Gaussian is a federally registered
 trademark of Gaussian, Inc.
  
 This software contains proprietary and confidential information,
 including trade secrets, belonging to Gaussian, Inc.
  
 This software is provided under written license and may be
 used, copied, transmitted, or stored only in accord with that
 written license.
  
 The following legend is applicable only to US Government
 contracts under FAR:
  
                    RESTRICTED RIGHTS LEGEND
  
 Use, reproduction and disclosure by the US Government is
 subject to restrictions as set forth in subparagraphs (a)
 and (c) of the Commercial Computer Software - Restricted
 Rights clause in FAR 52.227-19.
  
 Gaussian, Inc.
 340 Quinnipiac St., Bldg. 40, Wallingford CT 06492
  
  
 ---------------------------------------------------------------
 Warning -- This program may not be used in any manner that
 competes with the business of Gaussian, Inc. or will provide
 assistance to any competitor of Gaussian, Inc.  The licensee
 of this program is prohibited from giving any competitor of
 Gaussian, Inc. access to this program.  By using this program,
 the user acknowledges that Gaussian, Inc. is engaged in the
 business of creating and licensing software in the field of
 computational chemistry and represents and warrants to the
 licensee that it is not a competitor of Gaussian, Inc. and that
 it will not use this program in any manner prohibited above.
 ---------------------------------------------------------------
  

 Cite this work as:
 Gaussian 09, Revision D.01,
 M. J. Frisch, G. W. Trucks, H. B. Schlegel, G. E. Scuseria, 
 M. A. Robb, J. R. Cheeseman, G. Scalmani, V. Barone, B. Mennucci, 
 G. A. Petersson, H. Nakatsuji, M. Caricato, X. Li, H. P. Hratchian, 
 A. F. Izmaylov, J. Bloino, G. Zheng, J. L. Sonnenberg, M. Hada, 
 M. Ehara, K. Toyota, R. Fukuda, J. Hasegawa, M. Ishida, T. Nakajima, 
 Y. Honda, O. Kitao, H. Nakai, T. Vreven, J. A. Montgomery, Jr., 
 J. E. Peralta, F. Ogliaro, M. Bearpark, J. J. Heyd, E. Brothers, 
 K. N. Kudin, V. N. Staroverov, T. Keith, R. Kobayashi, J. Normand, 
 K. Raghavachari, A. Rendell, J. C. Burant, S. S. Iyengar, J. Tomasi, 
 M. Cossi, N. Rega, J. M. Millam, M. Klene, J. E. Knox, J. B. Cross, 
 V. Bakken, C. Adamo, J. Jaramillo, R. Gomperts, R. E. Stratmann, 
 O. Yazyev, A. J. Austin, R. Cammi, C. Pomelli, J. W. Ochterski, 
 R. L. Martin, K. Morokuma, V. G. Zakrzewski, G. A. Voth, 
 P. Salvador, J. J. Dannenberg, S. Dapprich, A. D. Daniels, 
 O. Farkas, J. B. Foresman, J. V. Ortiz, J. Cioslowski, 
 and D. J. Fox, Gaussian, Inc., Wallingford CT, 2013.
 
 ******************************************
 Gaussian 09:  ES64L-G09RevD.01 24-Apr-2013
                 7-Oct-2019 
 ******************************************
 %Chk=Paclitaxel-Marvin_1_OPT
 %NoSave
 %mem=26GB
 %NProcShared=8
 Will use up to    8 processors via shared memory.
 -------------
 # Opt=Restart
 -------------
 1/18=20,19=15,35=1/3(2);
 2/9=110/2;
 99//99;
 2/9=110/2;
 3/11=9,16=1,25=1,30=1,71=1/1,2,3;
 4/5=5,16=3,69=1/1;
 5/5=2,38=5/2;
 7//1,2,3,16;
 1/18=20,19=15/3(-5);
 2/9=110/2;
 6/7=2,8=2,9=2,10=2,19=2,28=1/1;
 99/9=1/99;

 GradGradGradGradGradGradGradGradGradGradGradGradGradGradGradGradGradGrad
 Berny optimization.
 Restoring state from the checkpoint file "Paclitaxel-Marvin_1_OPT.chk".
 ONIOM results not found on unit 2.
 Title:  Paclitaxel-Marvin_1 OPT
 Route:  # opt=tight mpw1pw91/6-31g(d) integral=ultrafine MaxDisk=50GB
 Using GEDIIS/GDIIS optimizer.
 FormGI is forming the generalized inverse of G from B-inverse, IUseBI=4.
 Internal  Forces:  Max     0.025482730 RMS     0.001564197
 Search for a local minimum.
 Step number   6 out of a maximum of 5813
 All quantities printed in internal units (Hartrees-Bohrs-Radians)
 Mixed Optimization -- RFO/linear search
 Update second derivatives using D2CorX and points    2    4    5    6
 DE= -2.44D-02 DEPred=-3.56D-02 R= 6.87D-01
 TightC=F SS=  1.41D+00  RLast= 3.36D-01 DXNew= 6.8264D-01 1.0069D+00
 Trust test= 6.87D-01 RLast= 3.36D-01 DXMaxT set to 6.83D-01
 ITU=  1  1  0 -1  1  0
 Use linear search instead of GDIIS.
     Eigenvalues ---    0.00198   0.00229   0.00230   0.00230   0.00230
     Eigenvalues ---    0.00230   0.00230   0.00230   0.00230   0.00230
     Eigenvalues ---    0.00230   0.00230   0.00230   0.00230   0.00230
     Eigenvalues ---    0.00230   0.00230   0.00230   0.00231   0.00253
     Eigenvalues ---    0.00254   0.00255   0.00260   0.00260   0.00260
     Eigenvalues ---    0.00260   0.00265   0.00271   0.00278   0.00283
     Eigenvalues ---    0.00284   0.00293   0.00293   0.00293   0.00293
     Eigenvalues ---    0.00310   0.00310   0.00310   0.00310   0.00310
     Eigenvalues ---    0.00311   0.00312   0.00314   0.00323   0.00330
     Eigenvalues ---    0.00338   0.00338   0.00338   0.00338   0.00346
     Eigenvalues ---    0.00347   0.00353   0.00360   0.00361   0.00361
     Eigenvalues ---    0.00361   0.00365   0.00368   0.00372   0.00387
     Eigenvalues ---    0.00395   0.00396   0.00396   0.00396   0.00398
     Eigenvalues ---    0.00399   0.00403   0.00415   0.00416   0.00419
     Eigenvalues ---    0.00421   0.00426   0.00428   0.00429   0.00432
     Eigenvalues ---    0.00433   0.00434   0.00435   0.00440   0.00462
     Eigenvalues ---    0.00465   0.00471   0.00472   0.00484   0.00484
     Eigenvalues ---    0.00484   0.00485   0.00485   0.00485   0.00486
     Eigenvalues ---    0.00486   0.00488   0.00488   0.00489   0.00502
     Eigenvalues ---    0.00504   0.00509   0.00510   0.00510   0.00510
     Eigenvalues ---    0.00515   0.00516   0.00524   0.00527   0.00528
     Eigenvalues ---    0.00530   0.00539   0.00566   0.00573   0.00581
     Eigenvalues ---    0.00586   0.00591   0.00593   0.00595   0.00600
     Eigenvalues ---    0.00602   0.00604   0.00605   0.00620   0.00638
     Eigenvalues ---    0.00646   0.00648   0.00651   0.00654   0.00654
     Eigenvalues ---    0.00657   0.00667   0.00695   0.00697   0.00698
     Eigenvalues ---    0.00712   0.00714   0.00715   0.00715   0.00715
     Eigenvalues ---    0.00724   0.00737   0.00740   0.00754   0.00762
     Eigenvalues ---    0.00764   0.00768   0.00793   0.00793   0.00793
     Eigenvalues ---    0.00796   0.00802   0.00802   0.00802   0.00804
     Eigenvalues ---    0.00820   0.00820   0.00820   0.00821   0.00824
     Eigenvalues ---    0.00841   0.00841   0.00841   0.00841   0.00855
     Eigenvalues ---    0.00869   0.00869   0.00869   0.00872   0.00873
     Eigenvalues ---    0.00875   0.00877   0.00877   0.00877   0.00878
     Eigenvalues ---    0.00889   0.00894   0.00898   0.00899   0.00908
     Eigenvalues ---    0.00917   0.00918   0.00918   0.00920   0.00920
     Eigenvalues ---    0.00920   0.00920   0.00923   0.00926   0.00928
     Eigenvalues ---    0.00934   0.00945   0.00947   0.00947   0.00948
     Eigenvalues ---    0.00948   0.00949   0.00952   0.00959   0.00971
     Eigenvalues ---    0.00974   0.00978   0.00986   0.00997   0.01008
     Eigenvalues ---    0.01008   0.01008   0.01008   0.01019   0.01020
     Eigenvalues ---    0.01020   0.01024   0.01024   0.01026   0.01034
     Eigenvalues ---    0.01040   0.01042   0.01049   0.01058   0.01058
     Eigenvalues ---    0.01059   0.01059   0.01062   0.01063   0.01072
     Eigenvalues ---    0.01088   0.01097   0.01099   0.01110   0.01112
     Eigenvalues ---    0.01112   0.01112   0.01113   0.01116   0.01117
     Eigenvalues ---    0.01117   0.01126   0.01127   0.01142   0.01146
     Eigenvalues ---    0.01150   0.01151   0.01151   0.01152   0.01152
     Eigenvalues ---    0.01157   0.01164   0.01170   0.01174   0.01187
     Eigenvalues ---    0.01194   0.01207   0.01209   0.01216   0.01229
     Eigenvalues ---    0.01230   0.01235   0.01240   0.01240   0.01241
     Eigenvalues ---    0.01242   0.01246   0.01250   0.01256   0.01259
     Eigenvalues ---    0.01262   0.01263   0.01264   0.01264   0.01270
     Eigenvalues ---    0.01270   0.01270   0.01275   0.01277   0.01277
     Eigenvalues ---    0.01278   0.01283   0.01294   0.01296   0.01297
     Eigenvalues ---    0.01298   0.01298   0.01309   0.01309   0.01309
     Eigenvalues ---    0.01318   0.01319   0.01325   0.01329   0.01341
     Eigenvalues ---    0.01351   0.01362   0.01362   0.01362   0.01362
     Eigenvalues ---    0.01362   0.01362   0.01364   0.01365   0.01365
     Eigenvalues ---    0.01366   0.01367   0.01367   0.01367   0.01367
     Eigenvalues ---    0.01367   0.01367   0.01368   0.01374   0.01378
     Eigenvalues ---    0.01379   0.01380   0.01383   0.01385   0.01391
     Eigenvalues ---    0.01392   0.01406   0.01436   0.01436   0.01437
     Eigenvalues ---    0.01437   0.01441   0.01441   0.01442   0.01443
     Eigenvalues ---    0.01452   0.01459   0.01475   0.01477   0.01481
     Eigenvalues ---    0.01483   0.01488   0.01490   0.01492   0.01493
     Eigenvalues ---    0.01501   0.01505   0.01506   0.01508   0.01510
     Eigenvalues ---    0.01511   0.01512   0.01529   0.01538   0.01546
     Eigenvalues ---    0.01547   0.01575   0.01580   0.01594   0.01625
     Eigenvalues ---    0.01644   0.01644   0.01644   0.01645   0.01646
     Eigenvalues ---    0.01682   0.01691   0.01695   0.01706   0.01716
     Eigenvalues ---    0.01716   0.01717   0.01724   0.01724   0.01726
     Eigenvalues ---    0.01727   0.01732   0.01738   0.01752   0.01758
     Eigenvalues ---    0.01761   0.01761   0.01761   0.01779   0.01798
     Eigenvalues ---    0.01800   0.01825   0.01835   0.01839   0.01886
     Eigenvalues ---    0.01893   0.01894   0.01897   0.01932   0.01946
     Eigenvalues ---    0.01959   0.01975   0.02016   0.02039   0.02050
     Eigenvalues ---    0.02051   0.02051   0.02051   0.02053   0.02053
     Eigenvalues ---    0.02053   0.02054   0.02063   0.02071   0.02075
     Eigenvalues ---    0.02075   0.02075   0.02075   0.02086   0.02087
     Eigenvalues ---    0.02089   0.02092   0.02093   0.02093   0.02093
     Eigenvalues ---    0.02093   0.02100   0.02100   0.02101   0.02101
     Eigenvalues ---    0.02102   0.02109   0.02112   0.02112   0.02113
     Eigenvalues ---    0.02113   0.02113   0.02113   0.02113   0.02113
     Eigenvalues ---    0.02115   0.02116   0.02116   0.02116   0.02116
     Eigenvalues ---    0.02116   0.02116   0.02117   0.02117   0.02117
     Eigenvalues ---    0.02117   0.02119   0.02122   0.02122   0.02122
     Eigenvalues ---    0.02122   0.02123   0.02123   0.02123   0.02123
     Eigenvalues ---    0.02123   0.02125   0.02126   0.02130   0.02130
     Eigenvalues ---    0.02130   0.02130   0.02130   0.02131   0.02131
     Eigenvalues ---    0.02131   0.02131   0.02132   0.02132   0.02132
     Eigenvalues ---    0.02132   0.02132   0.02133   0.02134   0.02134
     Eigenvalues ---    0.02134   0.02134   0.02134   0.02134   0.02135
     Eigenvalues ---    0.02135   0.02135   0.02135   0.02135   0.02136
     Eigenvalues ---    0.02136   0.02137   0.02137   0.02138   0.02138
     Eigenvalues ---    0.02138   0.02138   0.02138   0.02139   0.02141
     Eigenvalues ---    0.02142   0.02142   0.02142   0.02142   0.02142
     Eigenvalues ---    0.02143   0.02143   0.02143   0.02144   0.02144
     Eigenvalues ---    0.02144   0.02144   0.02144   0.02144   0.02144
     Eigenvalues ---    0.02144   0.02145   0.02147   0.02147   0.02147
     Eigenvalues ---    0.02148   0.02148   0.02148   0.02148   0.02148
     Eigenvalues ---    0.02149   0.02150   0.02150   0.02150   0.02150
     Eigenvalues ---    0.02150   0.02150   0.02151   0.02151   0.02151
     Eigenvalues ---    0.02151   0.02151   0.02151   0.02151   0.02151
     Eigenvalues ---    0.02151   0.02151   0.02151   0.02151   0.02151
     Eigenvalues ---    0.02151   0.02152   0.02153   0.02154   0.02154
     Eigenvalues ---    0.02154   0.02154   0.02155   0.02155   0.02155
     Eigenvalues ---    0.02155   0.02157   0.02157   0.02157   0.02157
     Eigenvalues ---    0.02159   0.02161   0.02161   0.02161   0.02161
     Eigenvalues ---    0.02163   0.02163   0.02163   0.02163   0.02164
     Eigenvalues ---    0.02164   0.02164   0.02164   0.02164   0.02165
     Eigenvalues ---    0.02165   0.02166   0.02166   0.02169   0.02169
     Eigenvalues ---    0.02169   0.02169   0.02172   0.02174   0.02174
     Eigenvalues ---    0.02174   0.02174   0.02176   0.02177   0.02178
     Eigenvalues ---    0.02178   0.02178   0.02178   0.02178   0.02178
     Eigenvalues ---    0.02180   0.02182   0.02186   0.02186   0.02190
     Eigenvalues ---    0.02191   0.02191   0.02191   0.02195   0.02199
     Eigenvalues ---    0.02203   0.02205   0.02206   0.02206   0.02209
     Eigenvalues ---    0.02210   0.02210   0.02213   0.02232   0.02234
     Eigenvalues ---    0.02237   0.02244   0.02247   0.02248   0.02248
     Eigenvalues ---    0.02254   0.02259   0.02263   0.02263   0.02263
     Eigenvalues ---    0.02265   0.02265   0.02272   0.02274   0.02276
     Eigenvalues ---    0.02276   0.02277   0.02286   0.02295   0.02339
     Eigenvalues ---    0.02351   0.02361   0.02377   0.02378   0.02404
     Eigenvalues ---    0.02424   0.02444   0.02447   0.02471   0.02488
     Eigenvalues ---    0.02518   0.02584   0.02620   0.02685   0.02770
     Eigenvalues ---    0.02775   0.02786   0.02800   0.02833   0.02837
     Eigenvalues ---    0.02841   0.02852   0.02874   0.02878   0.02881
     Eigenvalues ---    0.02892   0.02953   0.02957   0.02960   0.02974
     Eigenvalues ---    0.02985   0.02995   0.03012   0.03014   0.03016
     Eigenvalues ---    0.03093   0.03116   0.03180   0.03183   0.03249
     Eigenvalues ---    0.03255   0.03308   0.03319   0.03336   0.03394
     Eigenvalues ---    0.03408   0.03410   0.03417   0.03421   0.03440
     Eigenvalues ---    0.03444   0.03462   0.03497   0.03531   0.03547
     Eigenvalues ---    0.03548   0.03559   0.03583   0.03584   0.03592
     Eigenvalues ---    0.03630   0.03667   0.03670   0.03677   0.03691
     Eigenvalues ---    0.03706   0.03711   0.03714   0.03725   0.03730
     Eigenvalues ---    0.03735   0.03741   0.03766   0.03813   0.03831
     Eigenvalues ---    0.03841   0.03846   0.03865   0.03876   0.03881
     Eigenvalues ---    0.03881   0.03888   0.03891   0.03894   0.03914
     Eigenvalues ---    0.03922   0.03923   0.03932   0.03953   0.03957
     Eigenvalues ---    0.03973   0.03977   0.03988   0.04003   0.04014
     Eigenvalues ---    0.04022   0.04024   0.04026   0.04036   0.04041
     Eigenvalues ---    0.04047   0.04067   0.04076   0.04083   0.04104
     Eigenvalues ---    0.04122   0.04124   0.04126   0.04131   0.04166
     Eigenvalues ---    0.04171   0.04176   0.04203   0.04206   0.04212
     Eigenvalues ---    0.04220   0.04229   0.04233   0.04274   0.04277
     Eigenvalues ---    0.04279   0.04291   0.04296   0.04303   0.04311
     Eigenvalues ---    0.04329   0.04342   0.04347   0.04352   0.04362
     Eigenvalues ---    0.04398   0.04421   0.04460   0.04476   0.04483
     Eigenvalues ---    0.04493   0.04498   0.04507   0.04508   0.04510
     Eigenvalues ---    0.04513   0.04546   0.04550   0.04554   0.04563
     Eigenvalues ---    0.04604   0.04649   0.04681   0.04683   0.04689
     Eigenvalues ---    0.04702   0.04704   0.04704   0.04704   0.04705
     Eigenvalues ---    0.04708   0.04717   0.04724   0.04746   0.04759
     Eigenvalues ---    0.04765   0.04769   0.04772   0.04778   0.04782
     Eigenvalues ---    0.04795   0.04809   0.04810   0.04812   0.04814
     Eigenvalues ---    0.04816   0.04820   0.04823   0.04829   0.04843
     Eigenvalues ---    0.04852   0.04863   0.04880   0.04898   0.04907
     Eigenvalues ---    0.04909   0.04911   0.04912   0.04912   0.04915
     Eigenvalues ---    0.04929   0.04977   0.04981   0.04981   0.04984
     Eigenvalues ---    0.04987   0.04995   0.05003   0.05008   0.05012
     Eigenvalues ---    0.05013   0.05014   0.05020   0.05022   0.05023
     Eigenvalues ---    0.05025   0.05042   0.05048   0.05050   0.05051
     Eigenvalues ---    0.05057   0.05062   0.05070   0.05072   0.05074
     Eigenvalues ---    0.05076   0.05079   0.05080   0.05089   0.05099
     Eigenvalues ---    0.05108   0.05112   0.05122   0.05128   0.05146
     Eigenvalues ---    0.05148   0.05161   0.05164   0.05164   0.05165
     Eigenvalues ---    0.05168   0.05170   0.05173   0.05174   0.05175
     Eigenvalues ---    0.05178   0.05193   0.05198   0.05221   0.05223
     Eigenvalues ---    0.05226   0.05229   0.05230   0.05243   0.05246
     Eigenvalues ---    0.05256   0.05261   0.05268   0.05274   0.05280
     Eigenvalues ---    0.05283   0.05291   0.05298   0.05298   0.05302
     Eigenvalues ---    0.05302   0.05303   0.05305   0.05312   0.05316
     Eigenvalues ---    0.05320   0.05327   0.05335   0.05361   0.05364
     Eigenvalues ---    0.05366   0.05368   0.05381   0.05384   0.05395
     Eigenvalues ---    0.05396   0.05409   0.05416   0.05422   0.05430
     Eigenvalues ---    0.05444   0.05449   0.05451   0.05460   0.05462
     Eigenvalues ---    0.05462   0.05467   0.05474   0.05480   0.05491
     Eigenvalues ---    0.05495   0.05498   0.05498   0.05505   0.05508
     Eigenvalues ---    0.05512   0.05530   0.05535   0.05551   0.05552
     Eigenvalues ---    0.05558   0.05566   0.05570   0.05581   0.05590
     Eigenvalues ---    0.05608   0.05615   0.05616   0.05618   0.05622
     Eigenvalues ---    0.05625   0.05628   0.05631   0.05633   0.05641
     Eigenvalues ---    0.05644   0.05645   0.05647   0.05648   0.05653
     Eigenvalues ---    0.05657   0.05659   0.05662   0.05663   0.05665
     Eigenvalues ---    0.05666   0.05673   0.05698   0.05723   0.05753
     Eigenvalues ---    0.05790   0.05823   0.05826   0.05869   0.05891
     Eigenvalues ---    0.05908   0.05929   0.05936   0.05944   0.05971
     Eigenvalues ---    0.05979   0.05981   0.05987   0.06002   0.06021
     Eigenvalues ---    0.06025   0.06046   0.06082   0.06119   0.06127
     Eigenvalues ---    0.06130   0.06159   0.06163   0.06167   0.06193
     Eigenvalues ---    0.06203   0.06232   0.06250   0.06301   0.06335
     Eigenvalues ---    0.06341   0.06343   0.06358   0.06402   0.06417
     Eigenvalues ---    0.06429   0.06453   0.06518   0.06537   0.06598
     Eigenvalues ---    0.06600   0.06605   0.06611   0.06662   0.06675
     Eigenvalues ---    0.06701   0.06708   0.06746   0.06757   0.06812
     Eigenvalues ---    0.06846   0.06880   0.06882   0.06884   0.06886
     Eigenvalues ---    0.06890   0.06899   0.06903   0.06906   0.06908
     Eigenvalues ---    0.06909   0.06935   0.06946   0.06978   0.06983
     Eigenvalues ---    0.07019   0.07032   0.07047   0.07070   0.07079
     Eigenvalues ---    0.07097   0.07115   0.07123   0.07133   0.07137
     Eigenvalues ---    0.07162   0.07168   0.07174   0.07199   0.07214
     Eigenvalues ---    0.07222   0.07224   0.07227   0.07231   0.07266
     Eigenvalues ---    0.07277   0.07286   0.07286   0.07288   0.07290
     Eigenvalues ---    0.07302   0.07310   0.07321   0.07334   0.07353
     Eigenvalues ---    0.07356   0.07362   0.07390   0.07410   0.07424
     Eigenvalues ---    0.07426   0.07430   0.07433   0.07436   0.07442
     Eigenvalues ---    0.07450   0.07464   0.07466   0.07467   0.07468
     Eigenvalues ---    0.07476   0.07486   0.07498   0.07502   0.07506
     Eigenvalues ---    0.07514   0.07526   0.07555   0.07593   0.07605
     Eigenvalues ---    0.07613   0.07638   0.07649   0.07653   0.07664
     Eigenvalues ---    0.07668   0.07673   0.07676   0.07678   0.07689
     Eigenvalues ---    0.07695   0.07700   0.07710   0.07713   0.07715
     Eigenvalues ---    0.07717   0.07717   0.07721   0.07750   0.07763
     Eigenvalues ---    0.07764   0.07768   0.07770   0.07771   0.07789
     Eigenvalues ---    0.07791   0.07830   0.07842   0.07846   0.07875
     Eigenvalues ---    0.07913   0.07915   0.07933   0.07962   0.07984
     Eigenvalues ---    0.08009   0.08015   0.08031   0.08033   0.08052
     Eigenvalues ---    0.08054   0.08061   0.08091   0.08103   0.08113
     Eigenvalues ---    0.08131   0.08144   0.08150   0.08159   0.08161
     Eigenvalues ---    0.08165   0.08166   0.08190   0.08206   0.08222
     Eigenvalues ---    0.08235   0.08254   0.08270   0.08280   0.08302
     Eigenvalues ---    0.08386   0.08406   0.08417   0.08424   0.08443
     Eigenvalues ---    0.08488   0.08533   0.08540   0.08575   0.08629
     Eigenvalues ---    0.08650   0.08677   0.08685   0.08686   0.08688
     Eigenvalues ---    0.08690   0.08761   0.08785   0.08811   0.08845
     Eigenvalues ---    0.08854   0.08857   0.08861   0.08863   0.08867
     Eigenvalues ---    0.08881   0.08887   0.08893   0.08901   0.08910
     Eigenvalues ---    0.08917   0.08946   0.08951   0.08959   0.08972
     Eigenvalues ---    0.09040   0.09076   0.09079   0.09083   0.09105
     Eigenvalues ---    0.09109   0.09121   0.09138   0.09143   0.09473
     Eigenvalues ---    0.09492   0.09518   0.09530   0.09535   0.09549
     Eigenvalues ---    0.09591   0.09604   0.09706   0.09760   0.09786
     Eigenvalues ---    0.09852   0.09881   0.09928   0.09949   0.10098
     Eigenvalues ---    0.10210   0.10219   0.10240   0.10297   0.10435
     Eigenvalues ---    0.10502   0.10503   0.10504   0.10518   0.10534
     Eigenvalues ---    0.10541   0.10542   0.10566   0.10582   0.10615
     Eigenvalues ---    0.10624   0.10651   0.10674   0.10717   0.10734
     Eigenvalues ---    0.10756   0.10770   0.10794   0.10806   0.10847
     Eigenvalues ---    0.10905   0.10957   0.11003   0.11040   0.11056
     Eigenvalues ---    0.11124   0.11126   0.11170   0.11303   0.11344
     Eigenvalues ---    0.11421   0.11433   0.11478   0.11483   0.11549
     Eigenvalues ---    0.11585   0.11627   0.11677   0.11699   0.11737
     Eigenvalues ---    0.11762   0.11774   0.12021   0.12114   0.12282
     Eigenvalues ---    0.12313   0.12451   0.12479   0.12499   0.12564
     Eigenvalues ---    0.12591   0.12608   0.12616   0.12623   0.12652
     Eigenvalues ---    0.12682   0.12729   0.12886   0.12907   0.12991
     Eigenvalues ---    0.13085   0.13140   0.13345   0.13403   0.13518
     Eigenvalues ---    0.13542   0.13553   0.13569   0.13749   0.13834
     Eigenvalues ---    0.13868   0.13977   0.14031   0.14172   0.14210
     Eigenvalues ---    0.14295   0.14330   0.14351   0.14597   0.14637
     Eigenvalues ---    0.14772   0.14808   0.14857   0.14996   0.15102
     Eigenvalues ---    0.15149   0.15306   0.15321   0.15408   0.15520
     Eigenvalues ---    0.15561   0.15598   0.15666   0.15674   0.15714
     Eigenvalues ---    0.15719   0.15720   0.15730   0.15743   0.15754
     Eigenvalues ---    0.15763   0.15771   0.15780   0.15795   0.15813
     Eigenvalues ---    0.15820   0.15836   0.15842   0.15849   0.15919
     Eigenvalues ---    0.15924   0.15933   0.15934   0.15941   0.15942
     Eigenvalues ---    0.15952   0.15955   0.15956   0.15957   0.15958
     Eigenvalues ---    0.15970   0.15971   0.15972   0.15975   0.15975
     Eigenvalues ---    0.15986   0.15986   0.15986   0.15987   0.15987
     Eigenvalues ---    0.15988   0.15988   0.15988   0.15988   0.15993
     Eigenvalues ---    0.15993   0.15993   0.15994   0.15994   0.15994
     Eigenvalues ---    0.15994   0.15994   0.15995   0.15995   0.15995
     Eigenvalues ---    0.15995   0.15996   0.15996   0.15996   0.15996
     Eigenvalues ---    0.15996   0.15996   0.15996   0.15997   0.15997
     Eigenvalues ---    0.15997   0.15998   0.15998   0.15998   0.15998
     Eigenvalues ---    0.15998   0.15998   0.15998   0.15998   0.15999
     Eigenvalues ---    0.15999   0.15999   0.15999   0.15999   0.15999
     Eigenvalues ---    0.15999   0.15999   0.15999   0.15999   0.15999
     Eigenvalues ---    0.15999   0.15999   0.15999   0.15999   0.15999
     Eigenvalues ---    0.15999   0.15999   0.15999   0.15999   0.15999
     Eigenvalues ---    0.15999   0.15999   0.15999   0.15999   0.15999
     Eigenvalues ---    0.15999   0.15999   0.16000   0.16000   0.16000
     Eigenvalues ---    0.16000   0.16000   0.16000   0.16000   0.16000
     Eigenvalues ---    0.16000   0.16000   0.16000   0.16000   0.16000
     Eigenvalues ---    0.16000   0.16000   0.16000   0.16000   0.16000
     Eigenvalues ---    0.16000   0.16000   0.16000   0.16000   0.16000
     Eigenvalues ---    0.16000   0.16000   0.16000   0.16000   0.16000
     Eigenvalues ---    0.16000   0.16000   0.16000   0.16000   0.16000
     Eigenvalues ---    0.16000   0.16000   0.16000   0.16000   0.16000
     Eigenvalues ---    0.16000   0.16000   0.16000   0.16000   0.16000
     Eigenvalues ---    0.16000   0.16000   0.16000   0.16000   0.16000
     Eigenvalues ---    0.16000   0.16000   0.16000   0.16000   0.16000
     Eigenvalues ---    0.16000   0.16000   0.16000   0.16000   0.16000
     Eigenvalues ---    0.16000   0.16000   0.16000   0.16000   0.16000
     Eigenvalues ---    0.16000   0.16000   0.16000   0.16000   0.16000
     Eigenvalues ---    0.16000   0.16000   0.16000   0.16000   0.16000
     Eigenvalues ---    0.16000   0.16000   0.16000   0.16000   0.16000
     Eigenvalues ---    0.16000   0.16000   0.16000   0.16000   0.16000
     Eigenvalues ---    0.16000   0.16000   0.16000   0.16000   0.16000
     Eigenvalues ---    0.16000   0.16000   0.16000   0.16000   0.16000
     Eigenvalues ---    0.16000   0.16000   0.16000   0.16000   0.16000
     Eigenvalues ---    0.16000   0.16000   0.16000   0.16000   0.16000
     Eigenvalues ---    0.16000   0.16000   0.16000   0.16000   0.16000
     Eigenvalues ---    0.16000   0.16000   0.16000   0.16000   0.16000
     Eigenvalues ---    0.16000   0.16000   0.16000   0.16000   0.16000
     Eigenvalues ---    0.16000   0.16000   0.16000   0.16000   0.16000
     Eigenvalues ---    0.16000   0.16000   0.16000   0.16000   0.16000
     Eigenvalues ---    0.16000   0.16000   0.16000   0.16000   0.16000
     Eigenvalues ---    0.16000   0.16000   0.16000   0.16000   0.16000
     Eigenvalues ---    0.16000   0.16000   0.16000   0.16000   0.16000
     Eigenvalues ---    0.16000   0.16000   0.16000   0.16000   0.16000
     Eigenvalues ---    0.16000   0.16000   0.16000   0.16000   0.16000
     Eigenvalues ---    0.16000   0.16000   0.16000   0.16000   0.16000
     Eigenvalues ---    0.16000   0.16000   0.16000   0.16000   0.16000
     Eigenvalues ---    0.16000   0.16000   0.16000   0.16000   0.16000
     Eigenvalues ---    0.16000   0.16000   0.16000   0.16000   0.16000
     Eigenvalues ---    0.16000   0.16000   0.16000   0.16000   0.16000
     Eigenvalues ---    0.16000   0.16000   0.16000   0.16000   0.16000
     Eigenvalues ---    0.16000   0.16000   0.16000   0.16000   0.16000
     Eigenvalues ---    0.16000   0.16000   0.16000   0.16000   0.16000
     Eigenvalues ---    0.16000   0.16000   0.16000   0.16000   0.16000
     Eigenvalues ---    0.16000   0.16000   0.16000   0.16000   0.16000
     Eigenvalues ---    0.16000   0.16000   0.16002   0.16027   0.16038
     Eigenvalues ---    0.16067   0.16164   0.16180   0.16212   0.16261
     Eigenvalues ---    0.16278   0.16351   0.16464   0.16505   0.16510
     Eigenvalues ---    0.16567   0.16609   0.16660   0.16737   0.16812
     Eigenvalues ---    0.16858   0.16875   0.16908   0.16929   0.16936
     Eigenvalues ---    0.16937   0.16965   0.16997   0.17074   0.17096
     Eigenvalues ---    0.17110   0.17157   0.17223   0.17281   0.17363
     Eigenvalues ---    0.17389   0.17409   0.17449   0.17506   0.17562
     Eigenvalues ---    0.17582   0.17683   0.17710   0.17763   0.17768
     Eigenvalues ---    0.17788   0.17858   0.17866   0.18020   0.18149
     Eigenvalues ---    0.18183   0.18199   0.18217   0.18248   0.18279
     Eigenvalues ---    0.18317   0.18368   0.18412   0.18466   0.18520
     Eigenvalues ---    0.18537   0.18552   0.18558   0.18570   0.18611
     Eigenvalues ---    0.18629   0.18633   0.18639   0.18697   0.18718
     Eigenvalues ---    0.18722   0.18724   0.18767   0.18778   0.18839
     Eigenvalues ---    0.18937   0.18988   0.19027   0.19033   0.19053
     Eigenvalues ---    0.19094   0.19107   0.19126   0.19197   0.19221
     Eigenvalues ---    0.19276   0.19366   0.19412   0.19476   0.19515
     Eigenvalues ---    0.19646   0.19669   0.19712   0.19731   0.19754
     Eigenvalues ---    0.19795   0.19962   0.20047   0.20282   0.20334
     Eigenvalues ---    0.20397   0.20541   0.20588   0.20605   0.20620
     Eigenvalues ---    0.20703   0.20748   0.20770   0.20844   0.20880
     Eigenvalues ---    0.20951   0.20980   0.20995   0.21033   0.21113
     Eigenvalues ---    0.21134   0.21179   0.21292   0.21313   0.21322
     Eigenvalues ---    0.21338   0.21341   0.21356   0.21384   0.21397
     Eigenvalues ---    0.21406   0.21425   0.21479   0.21569   0.21643
     Eigenvalues ---    0.21667   0.21888   0.21980   0.21995   0.21995
     Eigenvalues ---    0.21996   0.21996   0.21997   0.21997   0.21998
     Eigenvalues ---    0.21998   0.21998   0.21998   0.21998   0.21998
     Eigenvalues ---    0.21999   0.21999   0.21999   0.21999   0.22000
     Eigenvalues ---    0.22000   0.22000   0.22000   0.22000   0.22000
     Eigenvalues ---    0.22000   0.22000   0.22000   0.22000   0.22000
     Eigenvalues ---    0.22000   0.22000   0.22000   0.22000   0.22000
     Eigenvalues ---    0.22000   0.22000   0.22000   0.22001   0.22001
     Eigenvalues ---    0.22001   0.22001   0.22001   0.22002   0.22003
     Eigenvalues ---    0.22003   0.22007   0.22013   0.22031   0.22056
     Eigenvalues ---    0.22088   0.22147   0.22365   0.22384   0.22586
     Eigenvalues ---    0.22602   0.22876   0.22928   0.22950   0.23103
     Eigenvalues ---    0.23129   0.23242   0.23295   0.23306   0.23329
     Eigenvalues ---    0.23373   0.23393   0.23410   0.23424   0.23439
     Eigenvalues ---    0.23440   0.23445   0.23451   0.23455   0.23456
     Eigenvalues ---    0.23457   0.23457   0.23463   0.23464   0.23466
     Eigenvalues ---    0.23466   0.23466   0.23472   0.23474   0.23474
     Eigenvalues ---    0.23475   0.23477   0.23478   0.23478   0.23484
     Eigenvalues ---    0.23505   0.23535   0.23586   0.23603   0.23735
     Eigenvalues ---    0.23739   0.23757   0.23787   0.23837   0.23878
     Eigenvalues ---    0.23883   0.23912   0.23929   0.23946   0.23967
     Eigenvalues ---    0.24013   0.24051   0.24108   0.24116   0.24132
     Eigenvalues ---    0.24252   0.24307   0.24310   0.24321   0.24339
     Eigenvalues ---    0.24368   0.24392   0.24426   0.24460   0.24515
     Eigenvalues ---    0.24546   0.24692   0.24711   0.24779   0.24794
     Eigenvalues ---    0.24831   0.24834   0.24835   0.24846   0.24855
     Eigenvalues ---    0.24867   0.24876   0.24880   0.24884   0.24887
     Eigenvalues ---    0.24901   0.24901   0.24907   0.24909   0.24914
     Eigenvalues ---    0.24921   0.24921   0.24929   0.24931   0.24948
     Eigenvalues ---    0.24950   0.24952   0.24962   0.24964   0.24968
     Eigenvalues ---    0.24968   0.24969   0.24971   0.24975   0.24980
     Eigenvalues ---    0.24982   0.24983   0.24984   0.24985   0.24986
     Eigenvalues ---    0.24986   0.24986   0.24987   0.24987   0.24987
     Eigenvalues ---    0.24987   0.24988   0.24988   0.24989   0.24990
     Eigenvalues ---    0.24990   0.24991   0.24992   0.24992   0.24993
     Eigenvalues ---    0.24993   0.24993   0.24994   0.24994   0.24994
     Eigenvalues ---    0.24995   0.24996   0.24996   0.24996   0.24997
     Eigenvalues ---    0.24997   0.24997   0.24997   0.24998   0.24998
     Eigenvalues ---    0.24998   0.24999   0.24999   0.24999   0.24999
     Eigenvalues ---    0.24999   0.24999   0.24999   0.24999   0.24999
     Eigenvalues ---    0.25000   0.25000   0.25000   0.25000   0.25000
     Eigenvalues ---    0.25000   0.25000   0.25000   0.25000   0.25000
     Eigenvalues ---    0.25000   0.25000   0.25000   0.25000   0.25000
     Eigenvalues ---    0.25000   0.25000   0.25000   0.25000   0.25000
     Eigenvalues ---    0.25000   0.25000   0.25000   0.25000   0.25000
     Eigenvalues ---    0.25000   0.25000   0.25000   0.25000   0.25000
     Eigenvalues ---    0.25000   0.25000   0.25000   0.25000   0.25000
     Eigenvalues ---    0.25000   0.25000   0.25000   0.25000   0.25000
     Eigenvalues ---    0.25000   0.25000   0.25000   0.25000   0.25000
     Eigenvalues ---    0.25000   0.25000   0.25000   0.25000   0.25000
     Eigenvalues ---    0.25000   0.25000   0.25000   0.25009   0.25044
     Eigenvalues ---    0.25056   0.25058   0.25154   0.25181   0.25185
     Eigenvalues ---    0.25247   0.25259   0.25928   0.26291   0.26356
     Eigenvalues ---    0.26380   0.26382   0.26426   0.26450   0.26459
     Eigenvalues ---    0.26465   0.26479   0.26488   0.26493   0.26520
     Eigenvalues ---    0.26585   0.26597   0.26601   0.26610   0.26838
     Eigenvalues ---    0.26850   0.26982   0.26989   0.27001   0.27018
     Eigenvalues ---    0.27043   0.27182   0.27233   0.27301   0.27302
     Eigenvalues ---    0.27303   0.27319   0.27332   0.27334   0.27335
     Eigenvalues ---    0.27378   0.27393   0.27418   0.27424   0.27448
     Eigenvalues ---    0.27463   0.27490   0.27498   0.27711   0.27744
     Eigenvalues ---    0.27796   0.27798   0.27808   0.27815   0.27927
     Eigenvalues ---    0.27927   0.27967   0.28194   0.28194   0.28194
     Eigenvalues ---    0.28217   0.28227   0.28227   0.28227   0.28301
     Eigenvalues ---    0.28355   0.28369   0.28381   0.28390   0.28412
     Eigenvalues ---    0.28422   0.28435   0.28439   0.28466   0.28485
     Eigenvalues ---    0.28499   0.28513   0.28518   0.28522   0.28582
     Eigenvalues ---    0.28653   0.28673   0.28674   0.28677   0.28811
     Eigenvalues ---    0.28897   0.28897   0.28899   0.28936   0.29013
     Eigenvalues ---    0.29013   0.29013   0.29014   0.29016   0.29018
     Eigenvalues ---    0.29046   0.29163   0.29206   0.29206   0.29208
     Eigenvalues ---    0.29249   0.29340   0.29341   0.29344   0.29391
     Eigenvalues ---    0.29398   0.29410   0.29413   0.29426   0.29427
     Eigenvalues ---    0.29434   0.29447   0.29740   0.29869   0.29879
     Eigenvalues ---    0.29884   0.29903   0.29905   0.29907   0.29910
     Eigenvalues ---    0.29947   0.30065   0.30078   0.30080   0.30080
     Eigenvalues ---    0.30137   0.30164   0.30168   0.30236   0.30242
     Eigenvalues ---    0.30244   0.30247   0.30412   0.30416   0.30429
     Eigenvalues ---    0.30430   0.31327   0.31971   0.31973   0.31975
     Eigenvalues ---    0.31993   0.32160   0.32265   0.32269   0.32293
     Eigenvalues ---    0.32589   0.32589   0.32589   0.32619   0.32667
     Eigenvalues ---    0.32668   0.32668   0.32678   0.32729   0.32738
     Eigenvalues ---    0.32742   0.32784   0.32806   0.32806   0.32807
     Eigenvalues ---    0.32871   0.32945   0.32945   0.32947   0.32959
     Eigenvalues ---    0.32974   0.32978   0.32979   0.33059   0.33185
     Eigenvalues ---    0.33208   0.33238   0.33252   0.33270   0.33270
     Eigenvalues ---    0.33270   0.33272   0.33272   0.33273   0.33279
     Eigenvalues ---    0.33335   0.33371   0.33376   0.33376   0.33385
     Eigenvalues ---    0.33404   0.33508   0.33508   0.33509   0.33510
     Eigenvalues ---    0.33512   0.33512   0.33517   0.33526   0.33629
     Eigenvalues ---    0.33631   0.33632   0.33661   0.33676   0.33676
     Eigenvalues ---    0.33678   0.33687   0.33701   0.33701   0.33702
     Eigenvalues ---    0.33702   0.33706   0.33706   0.33707   0.33707
     Eigenvalues ---    0.33708   0.33708   0.33713   0.33714   0.33731
     Eigenvalues ---    0.33731   0.33732   0.33734   0.33736   0.33736
     Eigenvalues ---    0.33738   0.33742   0.33748   0.33748   0.33749
     Eigenvalues ---    0.33751   0.33753   0.33753   0.33755   0.33759
     Eigenvalues ---    0.33761   0.33761   0.33763   0.33767   0.33770
     Eigenvalues ---    0.33770   0.33770   0.33771   0.33772   0.33772
     Eigenvalues ---    0.33779   0.33791   0.33799   0.33799   0.33800
     Eigenvalues ---    0.33800   0.33800   0.33800   0.33815   0.33821
     Eigenvalues ---    0.33843   0.33843   0.33844   0.33847   0.33848
     Eigenvalues ---    0.33848   0.33852   0.33856   0.33866   0.33867
     Eigenvalues ---    0.33874   0.33876   0.33882   0.33882   0.33885
     Eigenvalues ---    0.33889   0.33908   0.33908   0.33911   0.33912
     Eigenvalues ---    0.33917   0.33917   0.33918   0.33919   0.33919
     Eigenvalues ---    0.33919   0.33924   0.33925   0.33927   0.33927
     Eigenvalues ---    0.33931   0.33938   0.33944   0.33944   0.33947
     Eigenvalues ---    0.33950   0.33975   0.33975   0.33977   0.33978
     Eigenvalues ---    0.33982   0.33982   0.33982   0.33990   0.33997
     Eigenvalues ---    0.33997   0.33999   0.34003   0.34017   0.34017
     Eigenvalues ---    0.34018   0.34018   0.34020   0.34020   0.34021
     Eigenvalues ---    0.34024   0.34028   0.34028   0.34029   0.34030
     Eigenvalues ---    0.34039   0.34039   0.34039   0.34040   0.34043
     Eigenvalues ---    0.34043   0.34043   0.34043   0.34043   0.34043
     Eigenvalues ---    0.34044   0.34046   0.34051   0.34051   0.34051
     Eigenvalues ---    0.34053   0.34055   0.34056   0.34059   0.34061
     Eigenvalues ---    0.34061   0.34062   0.34062   0.34063   0.34063
     Eigenvalues ---    0.34064   0.34068   0.34070   0.34070   0.34070
     Eigenvalues ---    0.34072   0.34073   0.34073   0.34074   0.34095
     Eigenvalues ---    0.34100   0.34103   0.34103   0.34108   0.34114
     Eigenvalues ---    0.34114   0.34114   0.34135   0.34136   0.34148
     Eigenvalues ---    0.34148   0.34149   0.34158   0.34186   0.34186
     Eigenvalues ---    0.34186   0.34186   0.34186   0.34186   0.34187
     Eigenvalues ---    0.34188   0.34189   0.34189   0.34189   0.34196
     Eigenvalues ---    0.34198   0.34198   0.34199   0.34200   0.34202
     Eigenvalues ---    0.34202   0.34203   0.34210   0.34212   0.34212
     Eigenvalues ---    0.34213   0.34226   0.34229   0.34230   0.34252
     Eigenvalues ---    0.34261   0.34262   0.34262   0.34282   0.34285
     Eigenvalues ---    0.34286   0.34286   0.34330   0.34340   0.34345
     Eigenvalues ---    0.34345   0.34351   0.34355   0.34357   0.34357
     Eigenvalues ---    0.34367   0.34370   0.34381   0.34381   0.34387
     Eigenvalues ---    0.34393   0.34398   0.34398   0.34402   0.34406
     Eigenvalues ---    0.34410   0.34410   0.34411   0.34419   0.34420
     Eigenvalues ---    0.34420   0.34428   0.34437   0.34439   0.34439
     Eigenvalues ---    0.34447   0.34449   0.34451   0.34451   0.34490
     Eigenvalues ---    0.34527   0.34540   0.34540   0.34542   0.34562
     Eigenvalues ---    0.34575   0.34577   0.34577   0.34582   0.34594
     Eigenvalues ---    0.34610   0.34611   0.34615   0.34615   0.34615
     Eigenvalues ---    0.34616   0.34616   0.34616   0.34621   0.34622
     Eigenvalues ---    0.34627   0.34628   0.34629   0.34629   0.34631
     Eigenvalues ---    0.34631   0.34633   0.34636   0.34636   0.34636
     Eigenvalues ---    0.34652   0.34655   0.34662   0.34664   0.34664
     Eigenvalues ---    0.34710   0.34713   0.34713   0.34715   0.34721
     Eigenvalues ---    0.34722   0.34722   0.34726   0.34735   0.34738
     Eigenvalues ---    0.34738   0.34741   0.34752   0.34757   0.34757
     Eigenvalues ---    0.34760   0.34764   0.34767   0.34768   0.34770
     Eigenvalues ---    0.34771   0.34775   0.34776   0.34777   0.34777
     Eigenvalues ---    0.34779   0.34779   0.34781   0.34786   0.34786
     Eigenvalues ---    0.34787   0.34787   0.34789   0.34789   0.34789
     Eigenvalues ---    0.34794   0.34797   0.34797   0.34797   0.34807
     Eigenvalues ---    0.34823   0.34834   0.34834   0.34835   0.34836
     Eigenvalues ---    0.34841   0.34841   0.34842   0.34844   0.34850
     Eigenvalues ---    0.34851   0.34855   0.34857   0.34858   0.34859
     Eigenvalues ---    0.34874   0.34880   0.34881   0.34881   0.34881
     Eigenvalues ---    0.34881   0.34882   0.34882   0.34893   0.34895
     Eigenvalues ---    0.34895   0.34896   0.34918   0.34923   0.34926
     Eigenvalues ---    0.34926   0.34928   0.34929   0.34930   0.34931
     Eigenvalues ---    0.34939   0.34941   0.34942   0.34942   0.34954
     Eigenvalues ---    0.34956   0.34961   0.34961   0.34962   0.34962
     Eigenvalues ---    0.34963   0.34963   0.34977   0.34982   0.34984
     Eigenvalues ---    0.34984   0.34993   0.34997   0.35000   0.35000
     Eigenvalues ---    0.35002   0.35004   0.35005   0.35005   0.35064
     Eigenvalues ---    0.35066   0.35073   0.35074   0.35074   0.35075
     Eigenvalues ---    0.35075   0.35075   0.35210   0.35278   0.35284
     Eigenvalues ---    0.35288   0.35290   0.35366   0.35374   0.35378
     Eigenvalues ---    0.35751   0.36353   0.36358   0.36363   0.36463
     Eigenvalues ---    0.36735   0.36762   0.36776   0.36829   0.36873
     Eigenvalues ---    0.36997   0.37013   0.37028   0.37035   0.37136
     Eigenvalues ---    0.37151   0.37151   0.37164   0.37166   0.37169
     Eigenvalues ---    0.37481   0.37588   0.37640   0.37683   0.37796
     Eigenvalues ---    0.37863   0.37999   0.38022   0.38023   0.38025
     Eigenvalues ---    0.38034   0.38074   0.38116   0.38138   0.38157
     Eigenvalues ---    0.38171   0.38429   0.38515   0.38524   0.38525
     Eigenvalues ---    0.38539   0.38581   0.38726   0.38863   0.39250
     Eigenvalues ---    0.39572   0.40629   0.40696   0.40715   0.40716
     Eigenvalues ---    0.40728   0.40783   0.41041   0.41201   0.41268
     Eigenvalues ---    0.41436   0.41438   0.41439   0.41451   0.41478
     Eigenvalues ---    0.41482   0.41485   0.41501   0.41601   0.41655
     Eigenvalues ---    0.41740   0.41741   0.41776   0.41777   0.41778
     Eigenvalues ---    0.41778   0.41779   0.41780   0.41781   0.41782
     Eigenvalues ---    0.41782   0.41795   0.41862   0.41863   0.41863
     Eigenvalues ---    0.41865   0.41900   0.41913   0.41915   0.41915
     Eigenvalues ---    0.41923   0.41924   0.41924   0.41930   0.41952
     Eigenvalues ---    0.41954   0.41956   0.41964   0.42016   0.42026
     Eigenvalues ---    0.42032   0.42035   0.42039   0.42045   0.42054
     Eigenvalues ---    0.42056   0.42069   0.42133   0.42137   0.42139
     Eigenvalues ---    0.42143   0.42149   0.42156   0.42184   0.42187
     Eigenvalues ---    0.42273   0.42378   0.42432   0.42443   0.42557
     Eigenvalues ---    0.42558   0.42622   0.43370   0.43409   0.43418
     Eigenvalues ---    0.43671   0.44182   0.45309   0.45310   0.45311
     Eigenvalues ---    0.45339   0.45401   0.45402   0.45405   0.45438
     Eigenvalues ---    0.45561   0.45562   0.45566   0.45590   0.45599
     Eigenvalues ---    0.45600   0.45602   0.45606   0.45623   0.45637
     Eigenvalues ---    0.45641   0.45645   0.45658   0.45659   0.45690
     Eigenvalues ---    0.45723   0.45733   0.45733   0.45735   0.45770
     Eigenvalues ---    0.45867   0.45878   0.45891   0.45893   0.45898
     Eigenvalues ---    0.45899   0.45928   0.45948   0.45963   0.45966
     Eigenvalues ---    0.45969   0.45975   0.45979   0.45980   0.46027
     Eigenvalues ---    0.46105   0.46134   0.46145   0.46165   0.46210
     Eigenvalues ---    0.46213   0.46213   0.46215   0.46313   0.46324
     Eigenvalues ---    0.46324   0.46325   0.46352   0.46360   0.46360
     Eigenvalues ---    0.46360   0.46390   0.46439   0.46450   0.46453
     Eigenvalues ---    0.46454   0.46456   0.46460   0.46465   0.46470
     Eigenvalues ---    0.46471   0.46471   0.46490   0.46506   0.46515
     Eigenvalues ---    0.46519   0.46519   0.46520   0.46533   0.46535
     Eigenvalues ---    0.46538   0.46722   0.46790   0.46790   0.46800
     Eigenvalues ---    0.46873   0.46908   0.46909   0.46909   0.47011
     Eigenvalues ---    0.47029   0.47097   0.47110   0.47166   0.47189
     Eigenvalues ---    0.47270   0.47276   0.47276   0.47313   0.47449
     Eigenvalues ---    0.48429   0.48637   0.48744   0.48841   0.49310
     Eigenvalues ---    0.49357   0.49424   0.49443   0.49498   0.49657
     Eigenvalues ---    0.50078   0.50190   0.50318   0.50351   0.50355
     Eigenvalues ---    0.50364   0.50381   0.50411   0.50415   0.50440
     Eigenvalues ---    0.50440   0.50481   0.50506   0.50516   0.50517
     Eigenvalues ---    0.50539   0.50592   0.50670   0.50682   0.50796
     Eigenvalues ---    0.50887   0.50929   0.51016   0.51038   0.51074
     Eigenvalues ---    0.51127   0.51148   0.51169   0.51194   0.51224
     Eigenvalues ---    0.51338   0.51457   0.51464   0.51468   0.51482
     Eigenvalues ---    0.51495   0.51507   0.51511   0.51523   0.51529
     Eigenvalues ---    0.51534   0.51534   0.51572   0.51589   0.51600
     Eigenvalues ---    0.51611   0.51626   0.51653   0.51772   0.51842
     Eigenvalues ---    0.51862   0.51863   0.51872   0.51884   0.51910
     Eigenvalues ---    0.51914   0.51976   0.51992   0.52270   0.52396
     Eigenvalues ---    0.52410   0.52411   0.52558   0.52571   0.52641
     Eigenvalues ---    0.52663   0.52713   0.52714   0.52748   0.52777
     Eigenvalues ---    0.52777   0.52951   0.52999   0.53012   0.53012
     Eigenvalues ---    0.53062   0.53146   0.53178   0.53182   0.53229
     Eigenvalues ---    0.53274   0.53332   0.53361   0.53460   0.53555
     Eigenvalues ---    0.53590   0.53598   0.53612   0.53628   0.53636
     Eigenvalues ---    0.53738   0.53774   0.53794   0.53799   0.54112
     Eigenvalues ---    0.54172   0.54197   0.54201   0.55671   0.55957
     Eigenvalues ---    0.56193   0.56233   0.56503   0.56656   0.56828
     Eigenvalues ---    0.56869   0.60712   0.80427   0.85015   0.85025
     Eigenvalues ---    0.85055   0.86635   0.86901   0.86924   0.86928
     Eigenvalues ---    0.87398   0.87583   0.88908   0.89287   0.89376
     Eigenvalues ---    0.89515   0.90137   0.90469   0.90779   0.90913
     Eigenvalues ---    0.90980   0.91136   0.91178   0.91458   0.91476
     Eigenvalues ---    0.91508   0.91516   0.92681   0.93083   0.93410
     Eigenvalues ---    0.93412   0.93552   0.93598   0.93756   0.93767
     Eigenvalues ---    0.93900   0.94045   0.94047   0.94221   0.94996
     Eigenvalues ---    0.95248   0.95250   0.95350   0.97382   0.97546
     Eigenvalues ---    0.97549   0.97561   0.97579   0.97597   0.97606
     Eigenvalues ---    0.98082   2.44333
 RFO step:  Lambda=-6.64198924D-02 EMin= 1.98191618D-03
 Quartic linear search produced a step of  0.08468.
 Iteration  1 RMS(Cart)=  0.28644427 RMS(Int)=  0.00981669
 New curvilinear step failed, DQL= 4.48D+00 SP=-4.76D-03.
 ITry= 1 IFail=1 DXMaxC= 1.29D+00 DCOld= 1.00D+10 DXMaxT= 6.83D-01 DXLimC= 3.00D+00 Rises=F
 Iteration  1 RMS(Cart)=  0.26448077 RMS(Int)=  0.00884154
 Iteration  2 RMS(Cart)=  0.00766018 RMS(Int)=  0.00881335
 Iteration  3 RMS(Cart)=  0.00788010 RMS(Int)=  0.00878436
 Iteration  4 RMS(Cart)=  0.00810849 RMS(Int)=  0.00875453
 Iteration  5 RMS(Cart)=  0.00834446 RMS(Int)=  0.00872384
 Iteration  6 RMS(Cart)=  0.00858695 RMS(Int)=  0.00869226
 Iteration  7 RMS(Cart)=  0.00883862 RMS(Int)=  0.00865977
 Iteration  8 RMS(Cart)=  0.00909830 RMS(Int)=  0.00862632
 Iteration  9 RMS(Cart)=  0.00936678 RMS(Int)=  0.00859190
 Iteration 10 RMS(Cart)=  0.00964436 RMS(Int)=  0.00855646
 Iteration 11 RMS(Cart)=  0.00993154 RMS(Int)=  0.00851998
 Iteration 12 RMS(Cart)=  0.01022867 RMS(Int)=  0.00848242
 Iteration 13 RMS(Cart)=  0.01053541 RMS(Int)=  0.00844374
 Iteration 14 RMS(Cart)=  0.01085464 RMS(Int)=  0.00840389
 Iteration 15 RMS(Cart)=  0.01118485 RMS(Int)=  0.00836284
 Iteration 16 RMS(Cart)=  0.01152562 RMS(Int)=  0.00832056
 Iteration 17 RMS(Cart)=  0.01188024 RMS(Int)=  0.00827698
 Iteration 18 RMS(Cart)=  0.01224676 RMS(Int)=  0.00823208
 Iteration 19 RMS(Cart)=  0.01262785 RMS(Int)=  0.00818578
 Iteration 20 RMS(Cart)=  0.01302327 RMS(Int)=  0.00813805
 Iteration 21 RMS(Cart)=  0.01343374 RMS(Int)=  0.00808884
 Iteration 22 RMS(Cart)=  0.01386001 RMS(Int)=  0.00803807
 Iteration 23 RMS(Cart)=  0.01430355 RMS(Int)=  0.00798570
 Iteration 24 RMS(Cart)=  0.01476468 RMS(Int)=  0.00793165
 Iteration 25 RMS(Cart)=  0.01524423 RMS(Int)=  0.00787587
 Iteration 26 RMS(Cart)=  0.01574430 RMS(Int)=  0.00781828
 Iteration 27 RMS(Cart)=  0.01626507 RMS(Int)=  0.00775881
 Iteration 28 RMS(Cart)=  0.01680850 RMS(Int)=  0.00769736
 Iteration 29 RMS(Cart)=  0.01737546 RMS(Int)=  0.00763387
 Iteration 30 RMS(Cart)=  0.01796757 RMS(Int)=  0.00756824
 Iteration 31 RMS(Cart)=  0.01858690 RMS(Int)=  0.00750038
 Iteration 32 RMS(Cart)=  0.01923490 RMS(Int)=  0.00743018
 Iteration 33 RMS(Cart)=  0.01991369 RMS(Int)=  0.00735752
 Iteration 34 RMS(Cart)=  0.02062553 RMS(Int)=  0.00728231
 Iteration 35 RMS(Cart)=  0.02137283 RMS(Int)=  0.00720440
 Iteration 36 RMS(Cart)=  0.02215878 RMS(Int)=  0.00712367
 Iteration 37 RMS(Cart)=  0.02298577 RMS(Int)=  0.00703996
 Iteration 38 RMS(Cart)=  0.02385759 RMS(Int)=  0.00695312
 Iteration 39 RMS(Cart)=  0.02477827 RMS(Int)=  0.00686297
 Iteration 40 RMS(Cart)=  0.02575201 RMS(Int)=  0.00676933
 Iteration 41 RMS(Cart)=  0.02678403 RMS(Int)=  0.00667199
 Iteration 42 RMS(Cart)=  0.02787984 RMS(Int)=  0.00657072
 Iteration 43 RMS(Cart)=  0.02904603 RMS(Int)=  0.00646528
 Iteration 44 RMS(Cart)=  0.03029024 RMS(Int)=  0.00635540
 Iteration 45 RMS(Cart)=  0.03162144 RMS(Int)=  0.00624075
 Iteration 46 RMS(Cart)=  0.03304987 RMS(Int)=  0.00612102
 Iteration 47 RMS(Cart)=  0.03458787 RMS(Int)=  0.00599580
 Iteration 48 RMS(Cart)=  0.03625004 RMS(Int)=  0.00586466
 Iteration 49 RMS(Cart)=  0.03805408 RMS(Int)=  0.00572711
 Iteration 50 RMS(Cart)=  0.04002154 RMS(Int)=  0.00558259
 Iteration 51 RMS(Cart)=  0.04217888 RMS(Int)=  0.00543041
 Iteration 52 RMS(Cart)=  0.04455939 RMS(Int)=  0.00526982
 Iteration 53 RMS(Cart)=  0.04720523 RMS(Int)=  0.00509989
 Iteration 54 RMS(Cart)=  0.05017114 RMS(Int)=  0.00491953
 Iteration 55 RMS(Cart)=  0.05352933 RMS(Int)=  0.00472738
 Iteration 56 RMS(Cart)=  0.05737780 RMS(Int)=  0.00452177
 Iteration 57 RMS(Cart)=  0.06185337 RMS(Int)=  0.00430059
 Iteration 58 RMS(Cart)=  0.06715404 RMS(Int)=  0.00406107
 Iteration 59 RMS(Cart)=  0.07357935 RMS(Int)=  0.00379949
 Iteration 60 RMS(Cart)=  0.08160842 RMS(Int)=  0.00351065
 Iteration 61 RMS(Cart)=  0.09206549 RMS(Int)=  0.00318687
 Iteration 62 RMS(Cart)=  0.10651380 RMS(Int)=  0.00281607
 Iteration 63 RMS(Cart)=  0.12835737 RMS(Int)=  0.00237764
 Iteration 64 RMS(Cart)=  0.16663546 RMS(Int)=  0.00183452
 Iteration 65 RMS(Cart)=  0.25075983 RMS(Int)=  0.00117168
 Iteration 66 RMS(Cart)=  0.19265777 RMS(Int)=  0.00038412
 Iteration 67 RMS(Cart)=  0.00322817 RMS(Int)=  0.00021417
 Iteration 68 RMS(Cart)=  0.00001815 RMS(Int)=  0.00021417
 Iteration 69 RMS(Cart)=  0.00000019 RMS(Int)=  0.00021417
 ITry= 2 IFail=0 DXMaxC= 1.26D+01 DCOld= 1.00D+10 DXMaxT= 6.83D-01 DXLimC= 3.00D+00 Rises=F
 Iteration  1 RMS(Cart)=  0.23486261 RMS(Int)=  0.00787092
 Iteration  2 RMS(Cart)=  0.02109408 RMS(Int)=  0.00779334
 Iteration  3 RMS(Cart)=  0.02174358 RMS(Int)=  0.00771340
 Iteration  4 RMS(Cart)=  0.02241950 RMS(Int)=  0.00763103
 Iteration  5 RMS(Cart)=  0.02312961 RMS(Int)=  0.00754609
 Iteration  6 RMS(Cart)=  0.02387132 RMS(Int)=  0.00745847
 Iteration  7 RMS(Cart)=  0.02465067 RMS(Int)=  0.00736804
 Iteration  8 RMS(Cart)=  0.02546957 RMS(Int)=  0.00727467
 Iteration  9 RMS(Cart)=  0.02633114 RMS(Int)=  0.00717819
 Iteration 10 RMS(Cart)=  0.02723963 RMS(Int)=  0.00707844
 Iteration 11 RMS(Cart)=  0.02819867 RMS(Int)=  0.00697524
 Iteration 12 RMS(Cart)=  0.02921337 RMS(Int)=  0.00686840
 Iteration 13 RMS(Cart)=  0.03028924 RMS(Int)=  0.00675770
 Iteration 14 RMS(Cart)=  0.03143250 RMS(Int)=  0.00664290
 Iteration 15 RMS(Cart)=  0.03265062 RMS(Int)=  0.00652374
 Iteration 16 RMS(Cart)=  0.03395204 RMS(Int)=  0.00639993
 Iteration 17 RMS(Cart)=  0.03534672 RMS(Int)=  0.00627113
 Iteration 18 RMS(Cart)=  0.03684694 RMS(Int)=  0.00613697
 Iteration 19 RMS(Cart)=  0.03846638 RMS(Int)=  0.00599704
 Iteration 20 RMS(Cart)=  0.04022227 RMS(Int)=  0.00585086
 Iteration 21 RMS(Cart)=  0.04213539 RMS(Int)=  0.00569788
 Iteration 22 RMS(Cart)=  0.04423137 RMS(Int)=  0.00553746
 Iteration 23 RMS(Cart)=  0.04654226 RMS(Int)=  0.00536886
 Iteration 24 RMS(Cart)=  0.04910879 RMS(Int)=  0.00519118
 Iteration 25 RMS(Cart)=  0.05198362 RMS(Int)=  0.00500337
 Iteration 26 RMS(Cart)=  0.05523629 RMS(Int)=  0.00480413
 Iteration 27 RMS(Cart)=  0.05896093 RMS(Int)=  0.00459184
 Iteration 28 RMS(Cart)=  0.06328870 RMS(Int)=  0.00436446
 Iteration 29 RMS(Cart)=  0.06840880 RMS(Int)=  0.00411933
 Iteration 30 RMS(Cart)=  0.07460644 RMS(Int)=  0.00385288
 Iteration 31 RMS(Cart)=  0.08233549 RMS(Int)=  0.00356012
 Iteration 32 RMS(Cart)=  0.09237100 RMS(Int)=  0.00323371
 Iteration 33 RMS(Cart)=  0.10616923 RMS(Int)=  0.00286218
 Iteration 34 RMS(Cart)=  0.12685451 RMS(Int)=  0.00242607
 Iteration 35 RMS(Cart)=  0.16255173 RMS(Int)=  0.00189022
 Iteration 36 RMS(Cart)=  0.23958709 RMS(Int)=  0.00122635
 Iteration 37 RMS(Cart)=  0.22237318 RMS(Int)=  0.00045798
 Iteration 38 RMS(Cart)=  0.00412664 RMS(Int)=  0.00016844
 Iteration 39 RMS(Cart)=  0.00001252 RMS(Int)=  0.00016844
 Iteration 40 RMS(Cart)=  0.00000011 RMS(Int)=  0.00016844
 ITry= 3 IFail=0 DXMaxC= 1.12D+01 DCOld= 1.26D+01 DXMaxT= 6.83D-01 DXLimC= 3.00D+00 Rises=F
 Iteration  1 RMS(Cart)=  0.20504285 RMS(Int)=  0.00690319
 Iteration  2 RMS(Cart)=  0.03727581 RMS(Int)=  0.00676607
 Iteration  3 RMS(Cart)=  0.03853395 RMS(Int)=  0.00662445
 Iteration  4 RMS(Cart)=  0.03988311 RMS(Int)=  0.00647802
 Iteration  5 RMS(Cart)=  0.04133529 RMS(Int)=  0.00632640
 Iteration  6 RMS(Cart)=  0.04290490 RMS(Int)=  0.00616920
 Iteration  7 RMS(Cart)=  0.04460911 RMS(Int)=  0.00600593
 Iteration  8 RMS(Cart)=  0.04646911 RMS(Int)=  0.00583605
 Iteration  9 RMS(Cart)=  0.04851113 RMS(Int)=  0.00565892
 Iteration 10 RMS(Cart)=  0.05076803 RMS(Int)=  0.00547381
 Iteration 11 RMS(Cart)=  0.05328185 RMS(Int)=  0.00527980
 Iteration 12 RMS(Cart)=  0.05610712 RMS(Int)=  0.00507584
 Iteration 13 RMS(Cart)=  0.05931635 RMS(Int)=  0.00486060
 Iteration 14 RMS(Cart)=  0.06300820 RMS(Int)=  0.00463244
 Iteration 15 RMS(Cart)=  0.06732148 RMS(Int)=  0.00438923
 Iteration 16 RMS(Cart)=  0.07245780 RMS(Int)=  0.00412823
 Iteration 17 RMS(Cart)=  0.07872458 RMS(Int)=  0.00384568
 Iteration 18 RMS(Cart)=  0.08661756 RMS(Int)=  0.00353630
 Iteration 19 RMS(Cart)=  0.09699835 RMS(Int)=  0.00319222
 Iteration 20 RMS(Cart)=  0.11152364 RMS(Int)=  0.00280090
 Iteration 21 RMS(Cart)=  0.13386746 RMS(Int)=  0.00234071
 Iteration 22 RMS(Cart)=  0.17403478 RMS(Int)=  0.00177278
 Iteration 23 RMS(Cart)=  0.26435553 RMS(Int)=  0.00110208
 Iteration 24 RMS(Cart)=  0.15955651 RMS(Int)=  0.00025395
 Iteration 25 RMS(Cart)=  0.00213319 RMS(Int)=  0.00012827
 Iteration 26 RMS(Cart)=  0.00000484 RMS(Int)=  0.00012827
 Iteration 27 RMS(Cart)=  0.00000003 RMS(Int)=  0.00012827
 ITry= 4 IFail=0 DXMaxC= 9.73D+00 DCOld= 1.12D+01 DXMaxT= 6.83D-01 DXLimC= 3.00D+00 Rises=F
 Iteration  1 RMS(Cart)=  0.17522321 RMS(Int)=  0.00593817
 Iteration  2 RMS(Cart)=  0.05752091 RMS(Int)=  0.00572635
 Iteration  3 RMS(Cart)=  0.05976470 RMS(Int)=  0.00550664
 Iteration  4 RMS(Cart)=  0.06230402 RMS(Int)=  0.00527803
 Iteration  5 RMS(Cart)=  0.06521043 RMS(Int)=  0.00503925
 Iteration  6 RMS(Cart)=  0.06857568 RMS(Int)=  0.00478872
 Iteration  7 RMS(Cart)=  0.07253399 RMS(Int)=  0.00452443
 Iteration  8 RMS(Cart)=  0.07727902 RMS(Int)=  0.00424372
 Iteration  9 RMS(Cart)=  0.08310513 RMS(Int)=  0.00394301
 Iteration 10 RMS(Cart)=  0.09048630 RMS(Int)=  0.00361722
 Iteration 11 RMS(Cart)=  0.10024334 RMS(Int)=  0.00325881
 Iteration 12 RMS(Cart)=  0.11394633 RMS(Int)=  0.00285579
 Iteration 13 RMS(Cart)=  0.13504750 RMS(Int)=  0.00238749
 Iteration 14 RMS(Cart)=  0.17282594 RMS(Int)=  0.00181666
 Iteration 15 RMS(Cart)=  0.25741617 RMS(Int)=  0.00113616
 Iteration 16 RMS(Cart)=  0.17897168 RMS(Int)=  0.00029183
 Iteration 17 RMS(Cart)=  0.00259958 RMS(Int)=  0.00009367
 Iteration 18 RMS(Cart)=  0.00000278 RMS(Int)=  0.00009367
 Iteration 19 RMS(Cart)=  0.00000001 RMS(Int)=  0.00009367
 ITry= 5 IFail=0 DXMaxC= 8.28D+00 DCOld= 9.73D+00 DXMaxT= 6.83D-01 DXLimC= 3.00D+00 Rises=F
 Iteration  1 RMS(Cart)=  0.14540376 RMS(Int)=  0.00497582
 Iteration  2 RMS(Cart)=  0.08406952 RMS(Int)=  0.00466557
 Iteration  3 RMS(Cart)=  0.08821991 RMS(Int)=  0.00434128
 Iteration  4 RMS(Cart)=  0.09350130 RMS(Int)=  0.00399921
 Iteration  5 RMS(Cart)=  0.10043480 RMS(Int)=  0.00363396
 Iteration  6 RMS(Cart)=  0.10994012 RMS(Int)=  0.00323741
 Iteration  7 RMS(Cart)=  0.12383013 RMS(Int)=  0.00279643
 Iteration  8 RMS(Cart)=  0.14626026 RMS(Int)=  0.00228792
 Iteration  9 RMS(Cart)=  0.18903503 RMS(Int)=  0.00167157
 Iteration 10 RMS(Cart)=  0.28745298 RMS(Int)=  0.00100815
 Iteration 11 RMS(Cart)=  0.10008518 RMS(Int)=  0.00010761
 Iteration 12 RMS(Cart)=  0.00082956 RMS(Int)=  0.00006460
 Iteration 13 RMS(Cart)=  0.00000077 RMS(Int)=  0.00006460
 ITry= 6 IFail=0 DXMaxC= 6.84D+00 DCOld= 8.28D+00 DXMaxT= 6.83D-01 DXLimC= 3.00D+00 Rises=F
 Iteration  1 RMS(Cart)=  0.11558464 RMS(Int)=  0.00401619
 Iteration  2 RMS(Cart)=  0.12063711 RMS(Int)=  0.00356990
 Iteration  3 RMS(Cart)=  0.12955727 RMS(Int)=  0.00309660
 Iteration  4 RMS(Cart)=  0.14435688 RMS(Int)=  0.00257934
 Iteration  5 RMS(Cart)=  0.17172383 RMS(Int)=  0.00198788
 Iteration  6 RMS(Cart)=  0.23285430 RMS(Int)=  0.00129049
 Iteration  7 RMS(Cart)=  0.25094462 RMS(Int)=  0.00054834
 Iteration  8 RMS(Cart)=  0.00491352 RMS(Int)=  0.00004104
 Iteration  9 RMS(Cart)=  0.00000149 RMS(Int)=  0.00004104
 Iteration 10 RMS(Cart)=  0.00000000 RMS(Int)=  0.00004104
 ITry= 7 IFail=0 DXMaxC= 5.42D+00 DCOld= 6.84D+00 DXMaxT= 6.83D-01 DXLimC= 3.00D+00 Rises=F
 Iteration  1 RMS(Cart)=  0.16159621 RMS(Int)=  0.00278576
 Iteration  2 RMS(Cart)=  0.17849679 RMS(Int)=  0.00214357
 Iteration  3 RMS(Cart)=  0.22070166 RMS(Int)=  0.00142838
 Iteration  4 RMS(Cart)=  0.30261718 RMS(Int)=  0.00079966
 Iteration  5 RMS(Cart)=  0.00708211 RMS(Int)=  0.00002296
 Iteration  6 RMS(Cart)=  0.00000298 RMS(Int)=  0.00002295
 Iteration  7 RMS(Cart)=  0.00000000 RMS(Int)=  0.00002295
 ITry= 8 IFail=0 DXMaxC= 4.00D+00 DCOld= 5.42D+00 DXMaxT= 6.83D-01 DXLimC= 3.00D+00 Rises=F
 Iteration  1 RMS(Cart)=  0.22694849 RMS(Int)=  0.00151215
 Iteration  2 RMS(Cart)=  0.27505347 RMS(Int)=  0.00081396
 Iteration  3 RMS(Cart)=  0.06080493 RMS(Int)=  0.00003346
 Iteration  4 RMS(Cart)=  0.00030463 RMS(Int)=  0.00001031
 Iteration  5 RMS(Cart)=  0.00000001 RMS(Int)=  0.00001031
 ITry= 9 IFail=0 DXMaxC= 2.60D+00 DCOld= 4.00D+00 DXMaxT= 6.83D-01 DXLimC= 3.00D+00 Rises=F
 Variable       Old X    -DE/DX   Delta X   Delta X   Delta X     New X
                                 (Linear)    (Quad)   (Total)
    R1        1.85023  -0.00208  -0.00050  -0.00915  -0.00233   1.84790
    R2        3.66914   0.00115   0.00065   0.01851   0.00436   3.67350
    R3        1.84565  -0.00079  -0.00059  -0.00601  -0.00180   1.84385
    R4        1.83246   0.00008  -0.00059  -0.00507  -0.00160   1.83086
    R5        1.91816   0.00032  -0.00077  -0.00948  -0.00267   1.91549
    R6        3.87594  -0.00290  -0.00075  -0.02913  -0.00657   3.86937
    R7        2.06163  -0.00024  -0.00047  -0.00635  -0.00174   2.05989
    R8        2.05761  -0.00084  -0.00039  -0.00703  -0.00179   2.05582
    R9        2.06131   0.00013  -0.00038  -0.00248  -0.00088   2.06043
   R10        2.06784  -0.00050  -0.00033  -0.00543  -0.00142   2.06642
   R11        2.06327  -0.00015  -0.00027  -0.00167  -0.00061   2.06266
   R12        2.07290  -0.00065  -0.00045  -0.00768  -0.00199   2.07091
   R13        2.06893  -0.00054  -0.00051  -0.00563  -0.00163   2.06729
   R14        2.06534  -0.00106  -0.00049  -0.00699  -0.00189   2.06345
   R15        2.06448  -0.00047  -0.00031  -0.00218  -0.00074   2.06374
   R16        2.06517  -0.00059  -0.00030  -0.00219  -0.00074   2.06443
   R17        2.06375  -0.00034  -0.00035  -0.00437  -0.00123   2.06252
   R18        2.06036   0.00026  -0.00021   0.00035  -0.00014   2.06022
   R19        2.06280  -0.00046  -0.00028  -0.00152  -0.00058   2.06222
   R20        2.06376  -0.00031  -0.00025  -0.00137  -0.00052   2.06323
   R21        2.05857  -0.00024  -0.00030  -0.00396  -0.00109   2.05748
   R22        2.06762  -0.00040  -0.00019  -0.00010  -0.00021   2.06740
   R23        2.06866  -0.00083  -0.00041  -0.00390  -0.00119   2.06748
   R24        2.06113  -0.00032  -0.00028  -0.00125  -0.00053   2.06060
   R25        2.06951  -0.00062  -0.00032  -0.00552  -0.00142   2.06809
   R26        2.06556  -0.00040  -0.00031  -0.00188  -0.00069   2.06488
   R27        2.05914  -0.00038  -0.00033  -0.00236  -0.00080   2.05835
   R28        2.06213  -0.00040  -0.00020  -0.00072  -0.00035   2.06179
   R29        2.06542  -0.00034  -0.00039  -0.00395  -0.00118   2.06424
   R30        2.06818  -0.00048  -0.00038  -0.00263  -0.00090   2.06728
   R31        2.04890  -0.00052  -0.00033  -0.00418  -0.00116   2.04774
   R32        2.05175  -0.00029  -0.00033  -0.00365  -0.00106   2.05069
   R33        2.05398  -0.00063  -0.00035  -0.00340  -0.00103   2.05295
   R34        2.05102  -0.00050  -0.00038  -0.00488  -0.00135   2.04967
   R35        2.05199  -0.00066  -0.00036  -0.00488  -0.00134   2.05065
   R36        2.06088  -0.00038  -0.00030  -0.00143  -0.00059   2.06029
   R37        2.07240  -0.00088  -0.00037  -0.00329  -0.00103   2.07137
   R38        2.05645   0.00015  -0.00029  -0.00387  -0.00107   2.05539
   R39        2.05922  -0.00031  -0.00010   0.00205   0.00031   2.05952
   R40        2.06656  -0.00039  -0.00019  -0.00237  -0.00067   2.06589
   R41        2.06573  -0.00051  -0.00027  -0.00279  -0.00083   2.06490
   R42        2.07840  -0.00073  -0.00053  -0.00737  -0.00200   2.07640
   R43        2.06522  -0.00069  -0.00046  -0.00634  -0.00173   2.06349
   R44        2.05060  -0.00048  -0.00035  -0.00417  -0.00119   2.04941
   R45        2.05229  -0.00040  -0.00036  -0.00422  -0.00120   2.05108
   R46        2.05233  -0.00036  -0.00025  -0.00131  -0.00052   2.05181
   R47        2.05262  -0.00026  -0.00032  -0.00300  -0.00092   2.05171
   R48        2.05548  -0.00025  -0.00033  -0.00352  -0.00103   2.05445
   R49        2.05042  -0.00020  -0.00039  -0.00527  -0.00145   2.04897
   R50        2.05148  -0.00015  -0.00016  -0.00098  -0.00035   2.05113
   R51        2.05269  -0.00053  -0.00041  -0.00435  -0.00128   2.05140
   R52        2.05176  -0.00024  -0.00025  -0.00343  -0.00093   2.05083
   R53        2.05076  -0.00041  -0.00034  -0.00427  -0.00120   2.04956
   R54        2.97006  -0.00086  -0.00042  -0.00574  -0.00157   2.96850
   R55        2.92473  -0.00210  -0.00021  -0.00646  -0.00150   2.92323
   R56        2.95461  -0.00230  -0.00023  -0.00420  -0.00107   2.95354
   R57        2.68095  -0.00265  -0.00045  -0.00664  -0.00178   2.67917
   R58        2.97279  -0.00008   0.00010   0.00505   0.00111   2.97390
   R59        2.73520  -0.00380  -0.00093  -0.01528  -0.00398   2.73122
   R60        2.92663   0.00008  -0.00030   0.00047  -0.00020   2.92643
   R61        2.98017  -0.00151  -0.00025  -0.00329  -0.00090   2.97927
   R62        2.91911  -0.00021  -0.00035  -0.00081  -0.00051   2.91860
   R63        2.89489   0.00003  -0.00041  -0.00447  -0.00130   2.89359
   R64        2.72424  -0.00022  -0.00075  -0.00891  -0.00253   2.72171
   R65        2.86110  -0.00014  -0.00003   0.00417   0.00081   2.86191
   R66        2.74929  -0.00297  -0.00101  -0.01933  -0.00487   2.74442
   R67        2.87017   0.00061  -0.00016   0.00313   0.00047   2.87064
   R68        2.99255  -0.00177  -0.00007  -0.00095  -0.00026   2.99229
   R69        2.71058  -0.00180  -0.00077  -0.01018  -0.00280   2.70778
   R70        2.92870   0.00021  -0.00006   0.00328   0.00059   2.92929
   R71        2.89558   0.00029  -0.00015  -0.00150  -0.00045   2.89513
   R72        2.90058   0.00121  -0.00020  -0.00046  -0.00029   2.90029
   R73        2.30142   0.00160  -0.00083  -0.00756  -0.00234   2.29907
   R74        2.81818   0.00149   0.00035   0.01162   0.00267   2.82085
   R75        2.70781  -0.00259  -0.00136  -0.01922  -0.00521   2.70261
   R76        2.55011   0.00018  -0.00021  -0.00089  -0.00039   2.54972
   R77        2.88357   0.00019   0.00015   0.00644   0.00145   2.88502
   R78        2.85993   0.00162  -0.00003   0.00696   0.00135   2.86129
   R79        2.83400   0.00040   0.00016   0.00636   0.00143   2.83543
   R80        2.90524  -0.00203  -0.00024  -0.00528  -0.00130   2.90394
   R81        2.74702  -0.00220  -0.00081  -0.01254  -0.00332   2.74371
   R82        2.89798   0.00047  -0.00014   0.00028  -0.00008   2.89789
   R83        2.91589  -0.00012  -0.00001   0.00277   0.00055   2.91644
   R84        2.71560  -0.00264  -0.00095  -0.01398  -0.00375   2.71185
   R85        2.80072   0.00142  -0.00024   0.00282   0.00032   2.80104
   R86        2.53977  -0.00386  -0.00104  -0.01832  -0.00470   2.53507
   R87        2.29469   0.00153  -0.00065  -0.00700  -0.00205   2.29264
   R88        2.64320   0.00055  -0.00033  -0.00187  -0.00071   2.64250
   R89        2.64422   0.00001  -0.00036  -0.00305  -0.00097   2.64325
   R90        2.62548   0.00050  -0.00031   0.00043  -0.00022   2.62526
   R91        2.63266   0.00022  -0.00032  -0.00225  -0.00077   2.63189
   R92        2.63324  -0.00008  -0.00030  -0.00224  -0.00074   2.63250
   R93        2.62537   0.00030  -0.00019   0.00173   0.00016   2.62553
   R94        2.82584   0.00097   0.00002   0.00512   0.00105   2.82688
   R95        2.55105   0.00097  -0.00079  -0.00913  -0.00261   2.54844
   R96        2.28640   0.00400  -0.00074  -0.00291  -0.00133   2.28508
   R97        2.82874   0.00163   0.00027   0.01278   0.00282   2.83157
   R98        2.54560   0.00662   0.00044   0.01999   0.00443   2.55004
   R99        2.27806   0.00354  -0.00181  -0.01763  -0.00534   2.27273
   R100       2.89050  -0.00097  -0.00032  -0.00319  -0.00095   2.88954
   R101       2.54419  -0.00034  -0.00053  -0.00814  -0.00216   2.54204
   R102       2.27474   0.00460  -0.00083  -0.00613  -0.00205   2.27268
   R103       2.90452  -0.00124  -0.00024  -0.00577  -0.00139   2.90313
   R104       2.67205  -0.00095  -0.00081  -0.00906  -0.00262   2.66943
   R105       2.87028   0.00023  -0.00016   0.00243   0.00033   2.87061
   R106       2.74682  -0.00064  -0.00034  -0.00207  -0.00075   2.74606
   R107       2.63555   0.00002  -0.00040  -0.00347  -0.00109   2.63446
   R108       2.63862   0.00069  -0.00029  -0.00037  -0.00036   2.63826
   R109       2.62695   0.00064  -0.00031   0.00062  -0.00019   2.62676
   R110       2.63079   0.00022  -0.00030  -0.00133  -0.00056   2.63023
   R111       2.62979   0.00038  -0.00024  -0.00059  -0.00036   2.62943
   R112       2.62980   0.00035  -0.00026   0.00105  -0.00005   2.62975
   R113       2.82820   0.00147   0.00040   0.01283   0.00297   2.83117
   R114       2.57217   0.00016   0.00001   0.00087   0.00018   2.57235
   R115       2.31387   0.00184  -0.00120  -0.01425  -0.00405   2.30982
   R116       2.64115  -0.00030  -0.00028  -0.00234  -0.00075   2.64040
   R117       2.63993   0.00025  -0.00026  -0.00239  -0.00074   2.63918
   R118       2.62869   0.00038  -0.00006   0.00367   0.00068   2.62937
   R119       2.63013   0.00022  -0.00025  -0.00241  -0.00073   2.62940
   R120       2.63380   0.00023  -0.00030  -0.00204  -0.00071   2.63309
   R121       2.62352   0.00039  -0.00012   0.00288   0.00046   2.62398
   R122       3.58661   0.00168   0.00097   0.02381   0.00573   3.59235
   R123       3.68770   0.00056   0.00015   0.00474   0.00110   3.68880
   R124       3.73500   0.00044   0.00048   0.00697   0.00187   3.73687
   R125       1.82904  -0.00023  -0.00135  -0.01960  -0.00527   1.82376
   R126       1.84662  -0.00085  -0.00057  -0.00825  -0.00222   1.84440
   R127       1.83260  -0.00005  -0.00060  -0.00827  -0.00225   1.83035
   R128       1.91766   0.00041  -0.00081  -0.01099  -0.00301   1.91465
   R129       3.87377  -0.00311  -0.00081  -0.03213  -0.00724   3.86653
   R130       2.06219  -0.00080  -0.00046  -0.00785  -0.00203   2.06016
   R131       2.05774  -0.00073  -0.00037  -0.00636  -0.00165   2.05609
   R132       2.06051   0.00030  -0.00043  -0.00490  -0.00141   2.05910
   R133       2.06798  -0.00049  -0.00033  -0.00559  -0.00145   2.06653
   R134       2.06375   0.00016  -0.00026  -0.00258  -0.00078   2.06297
   R135       2.07269  -0.00078  -0.00046  -0.00781  -0.00203   2.07066
   R136       2.06818  -0.00074  -0.00055  -0.00848  -0.00225   2.06593
   R137       2.06542  -0.00104  -0.00050  -0.00867  -0.00223   2.06318
   R138       2.06455  -0.00049  -0.00032  -0.00518  -0.00136   2.06319
   R139       2.06451  -0.00054  -0.00034  -0.00513  -0.00137   2.06314
   R140       2.06469  -0.00034  -0.00032  -0.00489  -0.00130   2.06339
   R141       2.06828   0.00012   0.00010   0.00236   0.00057   2.06885
   R142       2.06141  -0.00007  -0.00033  -0.00439  -0.00121   2.06019
   R143       2.06468  -0.00027  -0.00022  -0.00288  -0.00079   2.06389
   R144       2.05767  -0.00028  -0.00034  -0.00538  -0.00142   2.05625
   R145       2.06731  -0.00019  -0.00020  -0.00263  -0.00073   2.06659
   R146       2.06844  -0.00070  -0.00043  -0.00662  -0.00175   2.06669
   R147       2.06114  -0.00027  -0.00030  -0.00436  -0.00117   2.05997
   R148       2.06921  -0.00061  -0.00033  -0.00572  -0.00148   2.06773
   R149       2.06684  -0.00027  -0.00027  -0.00346  -0.00096   2.06588
   R150       2.06009  -0.00034  -0.00030  -0.00462  -0.00123   2.05887
   R151       2.06203  -0.00026  -0.00021  -0.00264  -0.00074   2.06129
   R152       2.06543  -0.00033  -0.00040  -0.00550  -0.00150   2.06393
   R153       2.06756  -0.00036  -0.00041  -0.00582  -0.00158   2.06598
   R154       2.04894  -0.00033  -0.00032  -0.00385  -0.00109   2.04784
   R155       2.05140  -0.00035  -0.00035  -0.00450  -0.00125   2.05015
   R156       2.05245  -0.00052  -0.00043  -0.00569  -0.00157   2.05088
   R157       2.05129  -0.00043  -0.00036  -0.00453  -0.00127   2.05002
   R158       2.04958  -0.00045  -0.00046  -0.00625  -0.00171   2.04787
   R159       2.06077  -0.00041  -0.00033  -0.00449  -0.00123   2.05954
   R160       2.07213  -0.00086  -0.00040  -0.00627  -0.00165   2.07048
   R161       2.05667   0.00031  -0.00028  -0.00321  -0.00093   2.05575
   R162       2.05628   0.00015  -0.00020  -0.00197  -0.00059   2.05569
   R163       2.06570  -0.00036  -0.00023  -0.00307  -0.00084   2.06486
   R164       2.06349  -0.00020  -0.00036  -0.00568  -0.00150   2.06199
   R165       2.07815  -0.00075  -0.00055  -0.00913  -0.00238   2.07577
   R166       2.06521  -0.00064  -0.00047  -0.00783  -0.00204   2.06317
   R167       2.05056  -0.00044  -0.00037  -0.00590  -0.00155   2.04901
   R168       2.05214  -0.00035  -0.00037  -0.00585  -0.00154   2.05060
   R169       2.05199  -0.00027  -0.00029  -0.00427  -0.00114   2.05085
   R170       2.05272  -0.00035  -0.00031  -0.00487  -0.00128   2.05144
   R171       2.05571  -0.00031  -0.00033  -0.00512  -0.00135   2.05436
   R172       2.05038  -0.00019  -0.00040  -0.00602  -0.00160   2.04878
   R173       2.05138  -0.00012  -0.00017  -0.00256  -0.00068   2.05070
   R174       2.05251  -0.00047  -0.00043  -0.00683  -0.00180   2.05071
   R175       2.05171  -0.00023  -0.00025  -0.00399  -0.00105   2.05066
   R176       2.05069  -0.00039  -0.00035  -0.00567  -0.00149   2.04921
   R177       2.96431   0.00126  -0.00063  -0.00570  -0.00178   2.96253
   R178       2.91844  -0.00140  -0.00051  -0.01026  -0.00256   2.91589
   R179       2.94393  -0.00153  -0.00059  -0.01196  -0.00299   2.94095
   R180       2.67701   0.00048  -0.00059  -0.00686  -0.00196   2.67505
   R181       2.96369   0.00037  -0.00023  -0.00252  -0.00074   2.96295
   R182       2.71908  -0.00069  -0.00150  -0.02177  -0.00586   2.71322
   R183       2.92278   0.00012  -0.00047  -0.00465  -0.00140   2.92138
   R184       2.98236  -0.00124  -0.00016  -0.00551  -0.00127   2.98109
   R185       2.91548  -0.00033  -0.00050  -0.00625  -0.00176   2.91372
   R186       2.89510   0.00002  -0.00041  -0.00437  -0.00128   2.89382
   R187       2.72229  -0.00001  -0.00084  -0.01206  -0.00325   2.71905
   R188       2.86018   0.00048  -0.00006   0.00136   0.00020   2.86038
   R189       2.74614  -0.00338  -0.00114  -0.02183  -0.00550   2.74064
   R190       2.87065   0.00113  -0.00014   0.00070  -0.00001   2.87064
   R191       2.99444  -0.00099   0.00000  -0.00273  -0.00053   2.99391
   R192       2.71827  -0.00103  -0.00045  -0.00866  -0.00220   2.71607
   R193       2.93226  -0.00081   0.00000   0.00021   0.00007   2.93234
   R194       2.90053   0.00007   0.00004   0.00126   0.00029   2.90081
   R195       2.90504  -0.00169  -0.00011  -0.00493  -0.00109   2.90395
   R196       2.30384   0.00016  -0.00077  -0.01060  -0.00289   2.30095
   R197       2.81835  -0.00008   0.00026   0.00397   0.00105   2.81940
   R198       2.72013  -0.00235  -0.00098  -0.01601  -0.00415   2.71598
   R199       2.55211  -0.00029  -0.00016  -0.00225  -0.00061   2.55150
   R200       2.88570  -0.00081   0.00021   0.00290   0.00079   2.88649
   R201       2.86012   0.00125  -0.00009   0.00153   0.00021   2.86033
   R202       2.83272   0.00047   0.00009   0.00331   0.00075   2.83347
   R203       2.90229  -0.00056  -0.00041  -0.00538  -0.00149   2.90080
   R204       2.74053  -0.00176  -0.00109  -0.01860  -0.00481   2.73572
   R205       2.90432   0.00055   0.00013   0.00289   0.00070   2.90502
   R206       2.91607   0.00016   0.00001   0.00097   0.00021   2.91628
   R207       2.71689  -0.00253  -0.00091  -0.01661  -0.00424   2.71266
   R208       2.79847   0.00032  -0.00038  -0.00331  -0.00105   2.79742
   R209       2.54897   0.00318  -0.00056  -0.00239  -0.00104   2.54793
   R210       2.29097   0.00280  -0.00080  -0.00837  -0.00247   2.28850
   R211       2.64118   0.00038  -0.00044  -0.00422  -0.00128   2.63990
   R212       2.64001   0.00039  -0.00053  -0.00505  -0.00154   2.63847
   R213       2.62661   0.00018  -0.00028  -0.00191  -0.00066   2.62594
   R214       2.63178   0.00036  -0.00035  -0.00245  -0.00084   2.63094
   R215       2.63237   0.00041  -0.00033  -0.00263  -0.00086   2.63151
   R216       2.62318   0.00032  -0.00030  -0.00198  -0.00070   2.62248
   R217       2.82487   0.00120  -0.00003   0.00174   0.00031   2.82518
   R218       2.55006   0.00094  -0.00084  -0.01022  -0.00288   2.54718
   R219       2.28889   0.00315  -0.00068  -0.00612  -0.00190   2.28699
   R220       2.82353   0.00111   0.00006   0.00401   0.00086   2.82439
   R221       2.53187   0.00188  -0.00029   0.00020  -0.00023   2.53164
   R222       2.29629   0.00359  -0.00106  -0.01109  -0.00330   2.29299
   R223       2.88707  -0.00061  -0.00049  -0.00825  -0.00214   2.88493
   R224       2.54394   0.00134  -0.00055  -0.00634  -0.00182   2.54212
   R225       2.27492   0.00411  -0.00085  -0.00898  -0.00264   2.27227
   R226       2.90279  -0.00042  -0.00036  -0.00643  -0.00165   2.90114
   R227       2.67246  -0.00082  -0.00081  -0.01249  -0.00330   2.66915
   R228       2.86992   0.00040  -0.00018  -0.00135  -0.00045   2.86947
   R229       2.74598  -0.00064  -0.00040  -0.00659  -0.00172   2.74427
   R230       2.63531   0.00011  -0.00044  -0.00597  -0.00163   2.63368
   R231       2.63877   0.00044  -0.00029  -0.00333  -0.00096   2.63781
   R232       2.62727   0.00040  -0.00033  -0.00367  -0.00106   2.62621
   R233       2.63072   0.00019  -0.00032  -0.00414  -0.00115   2.62957
   R234       2.62939   0.00036  -0.00028  -0.00325  -0.00093   2.62847
   R235       2.62916   0.00027  -0.00031  -0.00361  -0.00103   2.62813
   R236       2.82769   0.00148   0.00036   0.00863   0.00209   2.82978
   R237       2.57268   0.00013   0.00002   0.00059   0.00014   2.57282
   R238       2.31385   0.00157  -0.00122  -0.01618  -0.00446   2.30939
   R239       2.64133  -0.00040  -0.00029  -0.00456  -0.00120   2.64013
   R240       2.64002   0.00018  -0.00027  -0.00355  -0.00098   2.63903
   R241       2.62897   0.00021  -0.00008  -0.00030  -0.00014   2.62883
   R242       2.63018   0.00017  -0.00026  -0.00340  -0.00094   2.62924
   R243       2.63395   0.00015  -0.00031  -0.00416  -0.00115   2.63280
   R244       2.62384   0.00027  -0.00014  -0.00101  -0.00034   2.62350
   R245       3.57359   0.00229   0.00065   0.01580   0.00380   3.57740
   R246       3.68888  -0.00106   0.00037  -0.00336  -0.00031   3.68857
   R247       3.27100   0.00678   0.00147   0.06147   0.01378   3.28478
   R248       1.82878  -0.00014  -0.00135  -0.01743  -0.00484   1.82394
   R249       1.84644  -0.00097  -0.00058  -0.00911  -0.00240   1.84403
   R250       1.83280   0.00020  -0.00059  -0.00829  -0.00225   1.83055
   R251       1.91552   0.00097  -0.00095  -0.01080  -0.00311   1.91242
   R252       3.86882  -0.00278  -0.00127  -0.03060  -0.00739   3.86144
   R253       2.06229  -0.00082  -0.00045  -0.00557  -0.00156   2.06073
   R254       2.05784  -0.00086  -0.00036  -0.00325  -0.00101   2.05683
   R255       2.06060   0.00044  -0.00042  -0.00456  -0.00133   2.05927
   R256       2.06816  -0.00056  -0.00030  -0.00210  -0.00072   2.06744
   R257       2.06365   0.00011  -0.00025  -0.00066  -0.00039   2.06326
   R258       2.07309  -0.00081  -0.00043  -0.00439  -0.00131   2.07178
   R259       2.06813  -0.00064  -0.00054  -0.00616  -0.00177   2.06636
   R260       2.06563  -0.00092  -0.00048  -0.00622  -0.00172   2.06391
   R261       2.06483  -0.00057  -0.00030  -0.00185  -0.00067   2.06416
   R262       2.06452  -0.00055  -0.00034  -0.00551  -0.00144   2.06308
   R263       2.06479  -0.00042  -0.00030  -0.00199  -0.00070   2.06409
   R264       2.06873  -0.00003   0.00012   0.00530   0.00118   2.06990
   R265       2.06140  -0.00022  -0.00034  -0.00437  -0.00122   2.06018
   R266       2.06485  -0.00039  -0.00020  -0.00004  -0.00021   2.06464
   R267       2.05809  -0.00029  -0.00031  -0.00217  -0.00074   2.05735
   R268       2.06729  -0.00032  -0.00022  -0.00284  -0.00078   2.06651
   R269       2.06847  -0.00065  -0.00043  -0.00705  -0.00184   2.06663
   R270       2.06118  -0.00028  -0.00029  -0.00262  -0.00081   2.06037
   R271       2.06959  -0.00071  -0.00030  -0.00245  -0.00079   2.06879
   R272       2.06714  -0.00036  -0.00025  -0.00127  -0.00050   2.06664
   R273       2.06014  -0.00040  -0.00030  -0.00350  -0.00100   2.05914
   R274       2.06223  -0.00029  -0.00020  -0.00244  -0.00069   2.06153
   R275       2.06564  -0.00033  -0.00038  -0.00426  -0.00123   2.06440
   R276       2.06763  -0.00033  -0.00041  -0.00567  -0.00154   2.06609
   R277       2.04910  -0.00040  -0.00030  -0.00121  -0.00054   2.04856
   R278       2.05134  -0.00035  -0.00035  -0.00464  -0.00128   2.05006
   R279       2.05237  -0.00050  -0.00043  -0.00621  -0.00168   2.05069
   R280       2.05149  -0.00048  -0.00034  -0.00176  -0.00069   2.05079
   R281       2.04957  -0.00044  -0.00046  -0.00644  -0.00175   2.04782
   R282       2.06099  -0.00048  -0.00031  -0.00137  -0.00058   2.06041
   R283       2.07226  -0.00075  -0.00039  -0.00603  -0.00159   2.07067
[...]
    715          1           0       -8.461866   13.273493    0.913720
    716          1           0       -9.626416   11.990087    1.327581
    717          1           0      -10.170943   13.373722    0.386296
    718          1           0       -4.150626    5.295766   -3.235429
    719          1           0       -1.535376    5.269267   -1.660975
    720          1           0       -0.656582    7.408028   -2.216094
    721          1           0        0.093423    9.061505   -3.900869
    722          1           0       -0.447812    8.722364   -6.292104
    723          1           0       -1.622464    6.633367   -7.007667
    724          1           0       -2.320320    4.977117   -5.326528
    725          1           0       -2.491854    1.733355   -4.589870
    726          1           0       -2.293797   -0.557714   -5.386694
    727          1           0       -0.629099   -2.107006   -4.369156
    728          1           0        0.842400   -1.294971   -2.552369
    729          1           0        0.632100    1.034234   -1.727540
    730          6           0       -4.191598   11.422184   -3.890835
    731          6           0       -5.096182   11.673912   -5.154361
    732          6           0       -6.438247   10.882199   -5.271851
    733          6           0       -6.596739   10.239914   -6.671790
    734          6           0       -8.016790    9.925809   -7.204457
    735          6           0       -9.232430   10.145363   -6.322970
    736          6           0       -8.905850   10.566197   -4.898823
    737          6           0       -7.748659   11.654166   -4.866157
    738          6           0       -7.850072   12.158552   -3.424226
    739          6           0       -7.408000   11.285024   -2.243855
    740          6           0       -5.973617   10.870010   -2.274100
    741          6           0       -5.660363    9.558338   -2.203480
    742          6           0       -4.253555    9.159812   -2.581260
    743          6           0       -3.746162    9.943775   -3.798785
    744          6           0       -4.880838   11.897602   -2.567842
    745          6           0       -5.368476   13.352498   -2.687739
    746          6           0       -3.867598   11.948478   -1.401405
    747          6           0       -6.598899    8.455439   -1.823912
    748          6           0       -8.106271   12.831661   -5.777867
    749          6           0       -6.473408   11.102263   -7.930566
    750          6           0       -3.570161   12.329361   -6.850094
    751          6           0       -2.689211   11.855337   -7.936545
    752          6           0       -2.554290   10.499007   -8.249821
    753          6           0       -1.722164   10.111520   -9.294090
    754          6           0       -1.047386   11.071712  -10.043629
    755          6           0       -1.186374   12.424273   -9.736115
    756          6           0       -1.993114   12.814736   -8.676420
    757          6           0       -6.112796    7.955207   -6.220335
    758          6           0       -5.170462    6.842157   -6.534236
    759          6           0       -9.026797   11.962561   -0.696229
    760          6           0       -9.322273   12.708312    0.558822
    761          6           0       -3.740953    6.961255   -1.923473
    762          6           0       -3.591016    5.490389   -2.315054
    763          6           0       -2.101140    5.143361   -2.588961
    764          6           0       -1.555856    6.088991   -3.649811
    765          6           0       -0.872976    7.244107   -3.266419
    766          6           0       -0.460427    8.180387   -4.212419
    767          6           0       -0.749543    7.978677   -5.560029
    768          6           0       -1.414969    6.821384   -5.956842
    769          6           0       -1.810329    5.881225   -5.007389
    770          6           0       -0.994752    2.944395   -2.539262
    771          6           0       -0.936086    1.552191   -3.092163
    772          6           0       -1.744496    1.092160   -4.137110
    773          6           0       -1.629170   -0.213237   -4.600487
    774          6           0       -0.704275   -1.079227   -4.027112
    775          6           0        0.110165   -0.627608   -2.993043
    776          6           0       -0.000637    0.678637   -2.532847
    777          7           0       -1.992758    3.752145   -2.985012
    778          8           0       -7.864309   10.918202   -8.253147
    779          8           0       -2.989047   12.151705   -4.111617
    780          8           0      -10.119975   11.021671   -4.340852
    781          8           0       -8.477666   13.165973   -3.176595
    782          8           0       -4.273133   11.327921   -6.281300
    783          8           0       -3.688678   13.492772   -6.527743
    784          8           0       -5.712205    9.106586   -6.788252
    785          8           0       -7.111808    7.869533   -5.540842
    786          8           0       -7.740186   11.988047   -1.031071
    787          8           0       -9.866797   11.371492   -1.364316
    788          8           0       -4.190757    7.752770   -2.927250
    789          8           0       -3.522569    7.364221   -0.812803
    790          8           0       -4.100975    4.715724   -1.249501
    791          8           0       -0.153965    3.337940   -1.722563
    792          1           0       12.304548  -13.434131   -1.172976
    793          1           0        5.821068  -10.371506   -1.921478
    794          1           0       11.763189   -4.376481   -3.210862
    795          1           0       14.013253   -3.850497   -1.068478
    796          1           0       10.257735  -12.846967   -0.164968
    797          1           0        9.595210   -9.959047   -0.638832
    798          1           0        8.102904   -8.800818    2.483753
    799          1           0        5.996714  -10.415475    1.496677
    800          1           0        6.288542   -8.739644    1.077533
    801          1           0        7.521026   -9.280508   -0.865851
    802          1           0        7.906831   -9.922961   -2.951122
    803          1           0       12.483054   -9.426956   -3.430004
    804          1           0       13.288625  -10.352065   -1.397524
    805          1           0       11.964322   -9.700702   -0.477171
    806          1           0        9.448656  -13.441552   -1.912026
    807          1           0       10.870729  -14.055780   -2.726733
    808          1           0        9.528090  -13.409297   -3.668414
    809          1           0       12.505555  -12.843926   -3.763902
    810          1           0       12.427634  -11.127481   -4.112107
    811          1           0       11.266236  -12.213029   -4.863039
    812          1           0       10.227340   -7.548758   -3.921967
    813          1           0        9.409088   -7.624448   -2.363272
    814          1           0        8.680103   -8.369982   -3.791818
    815          1           0        7.430478  -12.286441    1.433165
    816          1           0        8.037185  -13.437789    0.226320
    817          1           0        6.423890  -12.756258    0.064196
    818          1           0        9.384318  -12.271161    2.425998
    819          1           0       10.034694  -10.910308    3.392500
    820          1           0       12.850522  -10.360583    2.426719
    821          1           0       14.432239   -9.981677    4.289592
    822          1           0       15.361859  -11.920580    5.540744
    823          1           0       14.747305  -14.222750    4.891354
    824          1           0       13.235281  -14.600846    2.947141
    825          1           0       11.565263   -7.232910    2.485061
    826          1           0       11.018576   -6.107604    1.191812
    827          1           0       12.180738   -7.402541    0.853068
    828          1           0        7.125887  -12.482157   -6.351237
    829          1           0        6.173089  -11.014765   -6.689896
    830          1           0        5.409647  -12.361171   -5.852196
    831          1           0       12.430170   -5.562888   -1.571547
    832          1           0       15.043794   -5.668685   -3.145080
    833          1           0       15.723765   -7.899249   -2.840933
    834          1           0       16.317763   -9.795749   -1.355627
    835          1           0       15.818696   -9.673282    1.063353
    836          1           0       14.845911   -7.570133    2.020175
    837          1           0       14.299353   -5.689318    0.541388
    838          1           0       14.389611   -2.229020   -0.005940
    839          1           0       14.795579    0.010352    0.849866
    840          1           0       16.593940    1.437475   -0.143892
    841          1           0       17.975054    0.542225   -1.996125
    842          1           0       17.546468   -1.746851   -2.868353
    843          6           0       11.548649  -11.615813   -1.423125
    844          6           0       10.605404  -11.811870   -0.180162
    845          6           0        9.398019  -10.833495   -0.017768
    846          6           0        9.331849  -10.257633    1.415957
    847          6           0        7.974078   -9.757060    1.969247
    848          6           0        6.744569   -9.734212    1.078321
    849          6           0        7.012454  -10.117201   -0.369019
    850          6           0        7.987446  -11.368081   -0.468163
    851          6           0        7.821981  -11.762386   -1.938704
    852          6           0        8.404839  -10.890312   -3.057706
    853          6           0        9.884105  -10.698365   -2.997641
    854          6           0       10.385958   -9.444995   -2.974723
    855          6           0       11.830631   -9.282229   -2.567178
    856          6           0       12.205734  -10.215737   -1.409900
    857          6           0       10.811064  -11.893582   -2.775228
    858          6           0       10.113484  -13.265678   -2.757369
    859          6           0       11.819144  -12.012506   -3.940596
    860          6           0        9.622656   -8.192158   -3.274212
    861          6           0        7.445110  -12.528663    0.371554
    862          6           0        9.311138  -11.198483    2.623707
    863          6           0       12.005849  -12.787396    1.472912
    864          6           0       12.946179  -12.507049    2.576146
    865          6           0       13.281910  -11.202817    2.954671
    866          6           0       14.162177  -10.995435    4.010244
    867          6           0       14.685567  -12.081742    4.706598
    868          6           0       14.346512  -13.381935    4.334440
    869          6           0       13.491027  -13.595161    3.262803
    870          6           0       10.175170   -8.058306    1.082666
    871          6           0       11.291264   -7.133480    1.432770
    872          6           0        6.726397  -11.210967   -4.662003
    873          6           0        6.350907  -11.819650   -5.968761
    874          6           0       12.652682   -7.121504   -3.041403
    875          6           0       12.977860   -5.726389   -2.506142
    876          6           0       14.491336   -5.579399   -2.205518
    877          6           0       14.951801   -6.673771   -1.256047
    878          6           0       15.526398   -7.836002   -1.774174
    879          6           0       15.851093   -8.905262   -0.943172
    880          6           0       15.585226   -8.828094    0.421932
    881          6           0       15.032723   -7.665507    0.954090
    882          6           0       14.723307   -6.594915    0.118564
    883          6           0       15.774384   -3.511866   -2.111183
    884          6           0       15.950422   -2.147480   -1.506370
    885          6           0       15.190666   -1.645733   -0.445841
    886          6           0       15.426169   -0.366271    0.049225
    887          6           0       16.422564    0.428636   -0.510492
    888          6           0       17.187704   -0.067603   -1.562970
    889          6           0       16.955838   -1.347257   -2.051068
    890          7           0       14.714207   -4.245224   -1.698086
    891          8           0        7.963400  -10.818358    2.959917
    892          8           0       12.629459  -12.525467   -1.253600
    893          8           0        5.746439  -10.344535   -0.951533
    894          8           0        7.051079  -12.644369   -2.251003
    895          8           0       11.463281  -11.662165    0.962688
    896          8           0       11.713333  -13.900085    1.088205
    897          8           0       10.384749   -9.287910    1.587030
    898          8           0        9.198353   -7.777994    0.423324
    899          8           0        7.987501  -11.451061   -4.317835
    900          8           0        5.966866  -10.546721   -3.967261
    901          8           0       12.085665   -7.931728   -2.114007
    902          8           0       12.832142   -7.456137   -4.183543
    903          8           0       12.608208   -4.784074   -3.477481
    904          8           0       16.575865   -3.921354   -2.943309
    905          1           0        1.950018    2.187712    0.504838
    906          1           0        0.576992    2.523576   -0.192057
    907          8           0        0.983335    2.074482    0.579746
    908          1           0      -14.998252   -2.310203    4.683851
    909          1           0      -16.249059   -2.619502    5.482539
    910          8           0      -15.961401   -2.181014    4.673605
    911          1           0       -1.168475   11.893100   -3.700293
    912          1           0        0.074345   11.575067   -4.513873
    913          8           0       -0.196834   11.910148   -3.651526
    914          1           0       14.471591  -12.494146   -1.649184
    915          1           0       15.729219  -12.412650   -0.806357
    916          8           0       15.431824  -12.638195   -1.695333
    917          1           0       -5.646090   -1.803501    4.018547
    918          1           0       -4.342419   -2.209441    4.671078
    919          8           0       -4.691303   -1.830624    3.855081
    920          1           0       11.280757    1.196080    0.985278
    921          1           0       12.595288    1.528893    0.303962
    922          8           0       12.240771    1.161009    1.123182
    923          1           0        5.103135  -12.647178   -2.369374
    924          1           0        3.835295  -12.351581   -1.599491
    925          8           0        4.147199  -12.540365   -2.492961
    926          1           0      -10.399971   13.471267   -3.081286
    927          1           0      -11.696649   13.322745   -3.845867
    928          8           0      -11.361428   13.518514   -2.962340
    929          1           0       -5.227969    3.164547   -3.958452
    930          1           0       -4.547510    3.081700   -5.379437
    931          8           0       -4.392628    3.285925   -4.451132
    932          1           0       11.608659   -3.327433   -0.653106
    933          1           0       12.275259   -3.449511    0.798678
    934          8           0       12.401695   -3.601867   -0.163090
    935          1           0        5.478258   11.130773    1.799578
    936          1           0        4.800697   11.416213    0.380000
    937          8           0        4.665005   11.039593    1.275376
    938          1           0      -12.083533  -11.400572    3.255166
    939          1           0      -12.750185  -11.668217    4.661649
    940          8           0      -12.883083  -11.270049    3.794992
    941          1           0       -3.626404    2.181248    2.025526
    942          1           0       -4.831464    3.138434    1.953921
    943          8           0       -4.003704    2.963714    2.453167
    944          1           0       12.866400   -2.793371    2.982166
    945          1           0       11.524160   -3.552769    2.969397
    946          8           0       12.374829   -3.494216    2.512526
    947          1           0        4.288672   12.644905   -1.562061
    948          1           0        5.591902   11.845650   -1.733581
    949          8           0        4.731228   11.827221   -1.291035
    950          1           0      -14.049130  -11.045754   -2.675747
    951          1           0      -12.708163  -10.295966   -2.490401
    952          8           0      -13.565050  -10.265779   -2.971358
    953          1           0       -2.859413    4.951969    0.354806
    954          1           0       -2.813229    4.239857    1.699387
    955          8           0       -2.268263    4.790081    1.103115
    956          1           0       13.057062   -5.767796    4.515740
    957          1           0       13.308649   -4.997309    3.223126
    958          8           0       13.701245   -5.676382    3.802845
    959          1           0        4.041986   10.221159   -3.847429
    960          1           0        3.746100   10.626437   -2.407153
    961          8           0        3.369938   10.135487   -3.160545
    962          1           0      -14.324675   -8.537253   -0.523553
    963          1           0      -14.540323   -8.984984   -1.953849
    964          8           0      -14.960927   -8.463822   -1.247505
    965          1           0       -4.433792   -3.261279    2.285171
    966          1           0       -2.936819   -3.101775    2.480435
    967          8           0       -3.581036   -3.586321    1.951642
    968          1           0       12.605027    2.548847    2.750445
    969          1           0       14.082155    2.286483    2.525614
    970          8           0       13.484870    2.814808    3.067733
    971          1           0        3.925702  -10.855084   -3.800345
    972          1           0        2.431401  -11.064189   -3.671742
    973          8           0        3.076243  -10.453597   -4.047538
    974          1           0      -11.836834   11.956547   -1.610670
    975          1           0      -13.281504   12.368459   -1.800808
    976          8           0      -12.740779   11.700195   -1.363654
 ---------------------------------------------------------------------
 Rotational constants (GHZ):      0.0008194      0.0006451      0.0004375
 Standard basis: STO-3G (5D, 7F)
 There are  3056 symmetry adapted cartesian basis functions of A   symmetry.
 There are  3056 symmetry adapted basis functions of A   symmetry.
  3056 basis functions,  9168 primitive gaussians,  3056 cartesian basis functions
  1928 alpha electrons     1928 beta electrons
       nuclear repulsion energy    307208.9353385860 Hartrees.
 NAtoms=  976 NActive=  976 NUniq=  976 SFac= 1.00D+00 NAtFMM=   60 NAOKFM=T Big=T
 Integral buffers will be    131072 words long.
 Raffenetti 1 integral format.
 Two-electron integral symmetry is turned on.
 One-electron integrals computed using PRISM.
 NBasis=  3056 RedAO= T EigKep=  1.70D-01  NBF=  3056
 NBsUse=  3056 1.00D-06 EigRej= -1.00D+00 NBFU=  3056
 Lowest energy guess from the checkpoint file:  "Paclitaxel-Marvin_1_OPT.chk"
 B after Tr=     0.000000    0.000000    0.000000
         Rot=    0.999869    0.005395    0.008375   -0.012743 Ang=   1.85 deg.
 Unable to project occupied orbitals !
 Error termination via Lnk1e in /cm/shared/apps/Gaussian09/g09/l401.exe at Mon Oct  7 16:59:58 2019.
 Job cpu time:       0 days  4 hours 19 minutes 41.2 seconds.
 File lengths (MBytes):  RWF=   7405 Int=      0 D2E=      0 Chk=   5006 Scr=      1
